<?xml version="1.0"?>
<VTKFile type="UnstructuredGrid" version="0.1" byte_order="LittleEndian" compressor="vtkZLibDataCompressor">
  <UnstructuredGrid>
    <Piece NumberOfPoints="6293" NumberOfCells="784">
      <PointData>
        <DataArray type="Float64" Name="ux" format="ascii" RangeMin="-0.1262718546" RangeMax="0.12627181931">
          0 0 0.021151400671 0.010865506552 0 0
          0.014956296044 0.0076830748173 0 0.011195196196 0.016257981981 0.0041735301286
          0 0 0.026920909905 0.015611249697 0 0.00791619889
          0.011496129106 0.0029511316066 0.0079330976623 0 0.01533534903 0.02138351201
          0.0063199612563 0.0056095474871 0.010954559894 0 0 -2.4997196194e-09
          -2.0762685245e-09 0 0 0.011151003532 0.0064663936556 0
          -1.017245272e-09 -2.5258800893e-09 -8.0086958279e-10 0 0.0063521080155 0.0088573408783
          0.0026178153977 -1.0122331558e-09 0.0045375275735 0.037252368421 0.02425958506 0.026341406318
          0.017154117176 0.02974013349 0.03078508599 0.017944225799 0.038816105504 0.026015046028
          0.021029446614 0.021768345902 0.012688485926 0.023987818277 0.033432492551 0.032398418887
          0.021266303071 0.016961948301 0.027409382133 -6.7677948674e-09 -6.7217805294e-09 0.016078145563
          0.010775789765 -4.2940618127e-09 -7.4707314802e-09 -3.8277365066e-09 0.013848187828 0.013419862184
          0.0088087936775 -4.522449217e-09 0.011353337974 0.047116570531 0.033138206227 0.033316425116
          0.02343227158 0.043189390671 0.04003385755 0.029438714298 0.044834883482 0.031880753062
          0.030539517418 0.028308214805 0.020816316647 0.036272624789 0.042708175443 0.038256117904
          0.029618526117 0.02564862715 0.036098355557 -2.6763741409e-08 -1.7389769319e-08 0.018571193597
          0.013205445333 -1.3131203438e-08 -2.5418391906e-08 -1.0854869704e-08 0.017690281365 0.015846192561
          0.012268403594 -1.3261451043e-08 0.01495242008 0.048064460145 0.035111292559 0.033986801552
          0.024827429124 0.048792106291 0.041431957184 0.035093247294 0.043396367643 0.031836559858
          0.034501200328 0.029296870904 0.024814708064 0.041810473229 0.04507861322 0.037471984446
          0.032649933376 0.029564468741 0.038734017292 -7.292876478e-08 -5.528986074e-08 0.017975243226
          0.013187167513 -4.5377712828e-08 -8.5867894545e-08 -3.0289738204e-08 0.018672152489 0.015521354945
          0.013524043257 -4.5413020561e-08 0.016044147241 0.039307343473 0.029264537965 0.027794258754
          0.020693422188 0.044878257533 0.034136985124 0.033144779093 0.034357442163 0.025615403648
          0.031733882752 0.024138568774 0.023436907441 0.038852771952 0.039791860634 0.02985586323
          0.029463378558 0.027473173651 0.03448472019 -2.7421030219e-07 -1.9007758824e-07 0.014231118074
          0.010610332679 -1.7079745528e-07 -3.8468559682e-07 -9.509035755e-08 0.016481982953 0.012366464455
          0.012204250306 -1.8855636595e-07 0.014283875227 0.022128093661 0.016629068202 0.015647442204
          0.01175901949 0.031589140599 0.019289133989 0.023650612448 0.018986348605 0.014271782586
          0.022336562187 0.013640181809 0.016724194824 0.027496329578 0.027326564354 0.016552145004
          0.020475095364 0.019442853942 0.023793544695 1.7154775966e-06 -3.0312050241e-06 0.0078671698556
          0.0059115155773 -1.5984802451e-07 -2.9031499138e-06 -4.7025336666e-07 0.011319901792 0.0068565362191
          0.0084804558704 -1.0983187061e-06 0.0098557282564 0 0.028260341476 0
          0.019983073725 0 0.014673484714 0.024920261982 0 0.035944917957
          0 0.010375717357 0.01762128193 0.013195615498 0 0.020098757736
          0.031626792969 0.009330707385 0.018028281529 0 1.7434935288e-10 0
          0.014888864596 0 5.3726387922e-11 -1.5719421066e-09 0 0.0083251744571
          0.01310024099 -6.7765340816e-10 0.0074675559532 0.049395325231 0.034927757202 0.039796503255
          0.043414467062 0.051139076454 0.028140369922 0.030698660925 0.034926029553 0.044426614794
          0.045029261318 0.024696427434 0.039052112025 -5.8369922676e-10 0.021182482043 1.3267209733e-10
          -4.575562359e-09 0.018402093954 0.018651713468 -2.6539630693e-09 0.016175904924 0.061502744759
          0.043488992413 0.056753799993 0.054243536315 0.058324894703 0.040130978536 0.038355948732
          0.049982055907 0.055848543616 0.051495233034 0.035342642942 0.049257132588 -1.8253079316e-09
          0.024158932737 -1.7027517775e-09 -1.6859615761e-08 0.023133203258 0.021329993595 -9.0505916932e-09
          0.020402946251 0.062163448225 0.04395616421 0.063369454446 0.054955407406 0.056037848103
          0.044808962608 0.03885938203 0.05595732196 0.058411044953 0.04956631076 0.039567783773
          0.051617106418 7.8101286612e-10 0.023211597011 -1.7894873927e-09 -3.7450561676e-08 0.024194600375
          0.020530930338 -2.5457333138e-08 0.021380460647 0.050536873635 0.035735022867 0.057848385192
          0.044758407021 0.044145838429 0.040904931525 0.031648842238 0.051192028844 0.051239254803
          0.039106979565 0.036198267866 0.045359731836 1.1122743788e-07 0.018285926748 2.9024260565e-08
          -3.3172791546e-08 0.021224031159 0.016198649552 -5.9113126315e-08 0.018788446305 0.028354894644
          0.020050138015 0.040536295972 0.025142175666 0.024325894287 0.028663691659 0.017778674494
          0.035924505852 0.035055196202 0.021571030033 0.025402403097 0.03107081268 5.2800686824e-09
          0.010076016589 1.8124311303e-07 1.3716282345e-06 0.014520424389 0.008936455807 3.5744366804e-07
          0.012870604747 0 0.035200210751 0 0.024890298696 0
          0.018341807791 0.031705558231 0 0.044779709958 0 0.012969612321
          0.022419207938 0.016475007494 0 0.024956691661 0.040300712536 0.011649585681
          0.022464196093 0 4.3849991966e-09 0 0.018548356286 0
          2.1274464223e-09 2.3384161975e-09 0 0.010337396391 0.016693093547 1.0873455542e-09
          0.0093049706826 0.061848808963 0.043733696162 0.049638603304 0.055450728623 0.064050456199
          0.035099779875 0.039209570519 0.044634041774 0.05544981777 0.057393936973 0.031561022554
          0.049811046315 9.2095465037e-09 0.026530557644 6.5752705289e-09 4.7081532678e-09 0.022968058077
          0.02377333345 3.5012670018e-09 0.020632399835 0.077315401632 0.054670221331 0.071254383457
          0.06913208322 0.073315270746 0.050384439219 0.048883746842 0.063772196987 0.070122450165
          0.065546786696 0.045093734181 0.062740819448 1.6702625412e-08 0.03036817226 1.2470311685e-08
          9.9674540373e-09 0.02904565909 0.027150349029 6.5847523092e-09 0.025988082218 0.078188826018
          0.055287839576 0.079705231479 0.069867892475 0.070470832978 0.056360084052 0.049404030677
          0.071233215875 0.073458330239 0.062974765396 0.050369469936 0.065648752888 3.4159614257e-08
          0.029189983061 2.3456480447e-08 2.6183253415e-08 0.030427439447 0.026085004773 1.5419653759e-08
          0.027192586873 0.06348200414 0.044888540461 0.072729059169 0.05676322137 0.055442512066
          0.051427221054 0.040137706278 0.065001186457 0.064406923315 0.049580779942 0.045962761941
          0.057569184274 5.1830044764e-08 0.022965061639 4.5383948615e-08 8.9568789161e-08 0.026678221309
          0.020537100527 5.1177964852e-08 0.023845979667 0.035549102775 0.025137087218 0.050868882562
          0.031822815838 0.030495428601 0.03596970826 0.022502157368 0.045511344185 0.043984226665
          0.027300343191 0.03218147511 0.039355565079 1.6952418305e-07 0.012631814191 9.206309766e-08
          2.9456549205e-08 0.018218983435 0.011308179004 7.4170398387e-08 0.016301644453 0
          0.04307464889 0 0.030458366142 0 0.021863386587 0.038800360133
          0 0.05507901858 0 0.015459743567 0.027435988063 0.019964794478
          0 0.029940945863 0.049567930797 0.014117236611 0.02727542379 0
          6.4265092237e-09 0 0.022814471358 0 3.3043656661e-09 5.8623787599e-09
          0 0.012401943142 0.020531703633 2.9250304004e-09 0.011297847374 0.076730141161
          0.054256382679 0.061416683598 0.068933697985 0.079521285266 0.043428138769 0.048743467617
          0.055193884698 0.068719309127 0.071435183483 0.039027956554 0.061743375118 1.1720044612e-08
          0.032938788119 9.1383695898e-09 1.1526342677e-08 0.028464463307 0.029589414753 8.5846378699e-09
          0.025574936559 0.096174230099 0.068005426689 0.088518892852 0.086314097667 0.091201383794
          0.062592284474 0.061033261702 0.079486458035 0.087147187065 0.081864097774 0.056205392141
          0.078251827628 1.6948128103e-08 0.037776840302 1.4296679655e-08 1.8689638234e-08 0.036097540329
          0.033909214771 1.4807296951e-08 0.032412962357 0.097073163102 0.068641047479 0.09914705343
          0.08729668653 0.087411497275 0.07010752952 0.061728055918 0.089017897115 0.091331211077
          0.078665919526 0.062945138298 0.082041699673 1.9829713185e-08 0.036207026671 1.8934607036e-08
          2.8959946951e-08 0.037830611611 0.032584495407 2.3425015743e-08 0.03398278089 0.078226901926
          0.055314791886 0.089990893504 0.070721435838 0.068260341811 0.063633120006 0.050007605692
          0.081126968495 0.079615038107 0.06174987886 0.057365406092 0.071826133312 3.0662442192e-08
          0.028274360878 2.2906943834e-08 3.8868838349e-08 0.032977662308 0.025577644172 3.4347312614e-08
          0.029751380648 0.04348021286 0.030745017491 0.062431174452 0.039503250001 0.037288667765
          0.044145551529 0.027932966124 0.056593952459 0.053950304195 0.033884649381 0.040017963949
          0.048926313373 1.3580711889e-07 0.015445125472 2.4421747458e-09 1.9920779885e-08 0.022346742931
          0.014035372246 4.4469130145e-08 0.020265875748 0 0.053229703478 0
          0.037639070412 0 0.027815557786 0.048237068462 0 0.067519059349
          0 0.019668563749 0.03410874637 0.025048439289 0 0.037463982309
          0.06139642886 0.017711915925 0.03389778651 0 5.041435858e-09 0
          0.027967302601 0 2.7835867356e-09 6.0053922724e-09 0 0.015518085675
          0.025431227849 3.2047536978e-09 0.014040919787 0.094427641132 0.066770399102 0.074953930136
          0.085165190736 0.097915850146 0.053000411211 0.060220861917 0.068125302092 0.083944901738
          0.088286781281 0.048171845259 0.076143922429 8.1755841902e-09 0.040558053818 6.88348297e-09
          1.0393669324e-08 0.034771105653 0.036569570792 8.3551200969e-09 0.031539837968 0.11811786765
          0.083521875205 0.10944468936 0.10704305513 0.11139073088 0.077389043838 0.075690826063
          0.098556906255 0.10742127762 0.10137731996 0.069690229019 0.097003404466 6.0087265935e-09
          0.046139523368 8.1307241789e-09 1.2028589922e-08 0.044495320869 0.041991845142 1.1773307845e-08
          0.040180108633 0.11560915928 0.081747971905 0.12009815988 0.1070888717 0.10352773523
          0.084922131411 0.075723240866 0.10996648202 0.10996570053 0.096251710474 0.077757988782
          0.10111680027 -1.2049177224e-09 0.042882506585 2.9857136649e-09 1.0583532602e-08 0.045549259197
          0.039868728873 1.1694758529e-08 0.041883941332 0.090130411424 0.063731544933 0.10534875045
          0.085264186111 0.078405966112 0.074492767034 0.060290780525 0.098677080884 0.092799603823
          0.074315739158 0.069775225582 0.087165727653 -1.2883261669e-08 0.032476771509 -1.4288738677e-08
          -1.0750395334e-09 0.038438651876 0.030782586987 5.2425558342e-09 0.036105132087 0.048958038583
          0.034618779542 0.070982750349 0.046958552455 0.041955060149 0.050192131105 0.033204992779
          0.067690711044 0.061226361883 0.040260327488 0.047864485676 0.058453909672 1.3146979272e-06
          0.017379441808 2.2024355375e-07 -6.1033181752e-08 0.025361343618 0.016677018447 4.5833700174e-08
          0.024212807171 0 0.065373607739 0 0.046226114362 0
          0.026546862727 0.056473757983 0 0.082408743402 0 0.01877146002
          0.039932964852 0.027804663827 0 0.038395981882 0.073449986679 0.019660859319
          0.038083964024 0 3.289773633e-09 0 0.034134804214 0
          1.7946345609e-09 4.1467019221e-09 0 0.015904132683 0.030423969104 2.2978215013e-09
          0.015774890445 0.11316704471 0.080021133288 0.095709583177 0.10611844584 0.1125874178
          0.0676768791 0.075037031685 0.084264452856 0.10288397255 0.10880467839 0.059583946128
          0.094224064972 2.8717457839e-09 0.046635213563 3.9036128543e-09 5.5030328844e-09 0.042615911937
          0.045068350306 5.4249252095e-09 0.039028865952 0.121741654 0.086084335141 0.12109143255
          0.12627181931 0.11209302575 0.085624502646 0.089287603845 0.12010285771 0.11504474093
          0.11793492053 0.084925482003 0.11652277392 2.6348965672e-09 0.046430333043 2.0843792896e-09
          3.662126223e-09 0.047653064798 0.048850175264 4.8744017411e-09 0.04826528613 0.10674805007
          0.075481735248 0.11661716518 0.11808639461 0.094457926545 0.082460726832 0.083499401631
          0.12532915551 0.1049788063 0.10517588012 0.088621012454 0.113915628 -1.0424615401e-08
          0.039125665261 -3.1570577135e-09 -1.5181451381e-08 0.043483394295 0.043565193239 -2.3345013796e-09
          0.04718526085 0.077464850616 0.054775836771 0.093384578385 0.089119039894 0.067063632594
          0.066032010302 0.063016502153 0.10565750221 0.081602237789 0.077351368672 0.074710683423
          0.092724211867 2.132231489e-08 0.027777761312 3.2735193646e-08 -7.8770867066e-08 0.033801029005
          0.032039558432 -2.4961848187e-08 0.038407698381 0.040491763844 0.028628498904 0.059625795161
          0.047546808117 0.034662253328 0.042161227925 0.03361922034 0.069437401548 0.051289041123
          0.04072658817 0.049099266014 0.059818031382 7.8639876601e-07 0.014349187889 2.4482046626e-07
          -1.6883119608e-06 0.02123939665 0.016866702611 -5.0842594015e-07 0.024775491682 0
          0 0 0 0 0 0.073041922445
          0 0 0 0 0.051648429919 0.047373510136
          0 0 0.079687506374 0.033498130003 0.053043567612 0
          0 0 0 0 0 1.6143719411e-09
          0 0 0.03300763817 1.2418341764e-09 0.021971360429 0
          0 0 0.088070701891 0 0 0.062275391892
          0.083663485373 0 0.085222385619 0.059159002974 0.084667634314 0
          0 0 -4.0639826319e-10 0 0.035300237716 1.2794011819e-09
          0.035070472434 0 0 0 0.084083723851 0
          0 0.059456076562 0.087958398583 0 0.076950577999 0.062195983069
          0.082472032368 0 0 0 -1.3256697772e-08 0
          0.031873906808 -4.5334827804e-09 0.034160965963 0 0 0
          0.069085830374 0 0 0.04885120241 0.07747143844 0
          0.061154902219 0.054780421022 0.069577208341 0 0 0
          -7.6234477939e-08 0 0.025330884445 -3.3522599775e-08 0.028819784349 0
          0 0 0.048547931737 0 0 0.034327524253
          0.05931936945 0 0.042095653684 0.041945363622 0.051910055999 0
          0 0 -3.6560920891e-07 0 0.017435541257 -1.7690311478e-07
          0.021500832323 0 0 0 0.02497111273 0
          0 0.017655430714 0.03697097151 0 0.021390432557 0.026140376432
          0.031835095688 0 0 0 -3.9222920312e-06 0
          0.0088604281575 -1.6995344761e-06 0.013187334337 0 0 8.5712101655e-07
          -1.2148381957e-06 0 0 6.0607682205e-07 -8.5903298539e-07 0
          9.740435457e-07 6.2137015649e-07 -8.3582897006e-07 0 0 5.9729772427e-07
          -1.3255142339e-06 0 6.8875658879e-07 4.3937863771e-07 -5.9102389341e-07 5.0577380549e-07
          0 9.5309024348e-07 5.4972504419e-07 -1.024529909e-06 3.5764160208e-07 5.439815798e-07
          0 0 -4.2680994249e-11 -1.3075339086e-11 0 0
          2.4737117203e-07 -5.4906529713e-07 0 -1.9151129333e-11 -1.8736052868e-11 -4.4675968604e-12
          0 3.9476748028e-07 2.2768605011e-07 -4.2438300529e-07 -6.9332503427e-12 2.2531745281e-07
          -4.2083843403e-10 -1.4264239118e-06 -3.107696088e-10 -1.0086668011e-06 3.8518613016e-07 2.6126087203e-07
          -1.3437219064e-06 -1.1195939902e-07 -1.3358171603e-06 2.7236166046e-07 1.8473558101e-07 -9.5017722466e-07
          4.7278459151e-07 1.9713693924e-07 1.6633268566e-07 -1.3371984582e-06 3.3430877261e-07 3.7131312066e-07
          -9.8496693438e-11 -3.6455086861e-11 -4.6445735733e-08 -5.5334906207e-07 -6.9560094275e-11 -4.9689527554e-11
          -2.462637402e-11 8.1602688651e-08 6.8863284265e-08 -5.539127035e-07 -3.3475250953e-11 1.5377732648e-07
          -4.7602779228e-07 -1.3794985204e-06 -3.3662782114e-07 -9.7550795898e-07 -2.8341242239e-07 -1.3963275197e-07
          -1.437914092e-06 -4.7567422405e-07 -1.2123895572e-06 -2.0042306045e-07 -9.8740802254e-08 -1.0168025419e-06
          4.3087235788e-08 -3.3079757682e-07 -1.7332721471e-07 -1.2954742435e-06 3.0461471643e-08 -2.4700167934e-08
          -1.5994809421e-10 -5.8328544453e-11 -1.9713371562e-07 -5.022397035e-07 -1.289021493e-10 -8.5280793977e-11
          -4.8003351258e-11 -1.3710777593e-07 -7.1843844329e-08 -5.3664703385e-07 -6.7128729813e-11 -1.0273202553e-08
          -6.2731087618e-07 -1.1371740309e-06 -4.4358165481e-07 -8.041877247e-07 -5.918842245e-07 -3.4929948496e-07
          -1.2714150957e-06 -5.6890327864e-07 -9.7891512953e-07 -4.185499118e-07 -2.4698151629e-07 -8.9909388757e-07
          -2.7289056789e-07 -5.5672050694e-07 -3.2667560253e-07 -1.1015786191e-06 -1.9296396686e-07 -2.7498914739e-07
          -2.1799705562e-10 -7.3736912618e-11 -2.3576006671e-07 -4.0554972612e-07 -1.894784692e-10 -1.2138478286e-10
          -6.7010231139e-11 -2.3071623116e-07 -1.3536713041e-07 -4.5634741858e-07 -1.0349054842e-10 -1.1395846733e-07
          -5.3622903206e-07 -8.0288206187e-07 -3.7913773566e-07 -5.6783058363e-07 -6.0364143722e-07 -3.5021452977e-07
          -9.8161246434e-07 -4.6841495942e-07 -6.8676180978e-07 -4.268205955e-07 -2.4761048348e-07 -6.9420522441e-07
          -3.7321315996e-07 -5.3549016271e-07 -3.07423689e-07 -8.4201049077e-07 -2.6387724407e-07 -3.3579416641e-07
          -2.9542472473e-10 -8.2309653921e-11 -1.9413467411e-07 -2.8455126005e-07 -2.4775072932e-10 -1.5194060849e-10
          -7.2738774265e-11 -2.2190990306e-07 -1.2739261898e-07 -3.4885359487e-07 -1.4118237165e-10 -1.3914143981e-07
          -2.9696657491e-07 -4.4154658488e-07 -2.0981494915e-07 -3.122067467e-07 -4.3312705395e-07 -2.1974243071e-07
          -6.1469993948e-07 -2.5237090145e-07 -3.8530570627e-07 -3.0622837804e-07 -1.5542134005e-07 -4.3475979527e-07
          -2.9334168271e-07 -3.738343542e-07 -1.9160333667e-07 -5.2779026902e-07 -2.0740302483e-07 -2.5502753008e-07
          -4.9425396683e-10 -2.6774258495e-10 -1.0479127113e-07 -1.5966716751e-07 -2.0613204058e-10 -6.1349533496e-11
          -7.9254270314e-11 -1.5493169943e-07 -7.9435992233e-08 -2.1866402601e-07 -1.5357866432e-10 -1.0571261665e-07
          0 -3.455128631e-06 0 -2.443167353e-06 0 -3.3238506607e-06
          -2.4357345044e-06 0 -2.9573850172e-06 0 -2.3503285804e-06 -1.72233974e-06
          -1.7780312825e-06 0 -3.4021269369e-06 -2.5019195907e-06 -1.2572640643e-06 -2.0349798672e-06
          0 -1.8096887881e-10 0 -1.2251403087e-06 0 -8.8294111415e-11
          -9.3058017636e-11 0 -1.4092800657e-06 -1.0364108476e-06 -4.4745966432e-11 -8.4295363708e-07
          -1.8422358224e-06 -1.3027261577e-06 -2.4438159277e-06 -2.2149284908e-06 -1.7336969643e-06 -1.7280794793e-06
          -1.5662430087e-06 -2.402826821e-06 -2.1652108896e-06 -2.0465206531e-06 -1.6990852614e-06 -2.3064951275e-06
          -3.7535490504e-10 -7.183797768e-07 -2.7620616642e-10 -1.9919858274e-10 -8.9706334898e-07 -8.4784382569e-07
          -1.4478829961e-10 -9.5549468123e-07 -1.4201063229e-06 -1.004320685e-06 -1.5260229463e-06 -1.7604293158e-06
          -1.3893787162e-06 -1.0791665755e-06 -1.2449321785e-06 -1.9827895102e-06 -1.4844134089e-06 -1.5709866889e-06
          -1.4021255053e-06 -1.7927880338e-06 -5.6930366733e-10 -5.7586729344e-07 -4.7436491312e-10 -3.0659119511e-10
          -6.1517870693e-07 -6.5094311901e-07 -2.5405018168e-10 -7.427800792e-07 -1.4326750233e-06 -1.013416965e-06
          -1.4035432005e-06 -1.3841295064e-06 -1.3383782751e-06 -9.9268081584e-07 -9.789797195e-07 -1.5586065755e-06
          -1.3455897255e-06 -1.2187966805e-06 -1.1022749722e-06 -1.3791620071e-06 -7.4693832983e-10 -5.5491775607e-07
          -6.6002722326e-10 -3.9737937133e-10 -5.5779314563e-07 -5.0515858174e-07 -3.5597375369e-10 -5.7152734126e-07
          -1.3006181145e-06 -9.2029231878e-07 -1.411974441e-06 -1.0260046559e-06 -1.1547192939e-06 -9.9894983483e-07
          -7.258788294e-07 -1.2132606082e-06 -1.2830286649e-06 -8.9189489909e-07 -8.5823777205e-07 -1.0616834903e-06
          -9.3655572611e-10 -4.7899679695e-07 -7.9699643137e-10 -4.2766873867e-10 -5.3211523534e-07 -3.6982924813e-07
          -4.2355310801e-10 -4.4013786374e-07 -7.8502101938e-07 -5.5484726926e-07 -1.0856792217e-06 -5.5917437652e-07
          -6.768201515e-07 -7.6822447232e-07 -3.9586064831e-07 -8.0944191551e-07 -9.4782581484e-07 -4.7890556189e-07
          -5.7275565509e-07 -6.9856124583e-07 -3.7426534856e-09 -2.8193032413e-07 -1.1345794299e-09 -3.9094665586e-10
          -3.931550833e-07 -1.9861818999e-07 -5.6919986408e-10 -2.8976945768e-07 0 8.7472058192e-06
          0 6.1851586797e-06 0 1.0498124244e-05 7.049651046e-06 0
          6.1166782165e-06 0 7.4232935243e-06 4.9848455031e-06 5.6371756268e-06 0
          1.0190341429e-05 6.4160051269e-06 3.9860883268e-06 6.2038485447e-06 0 -5.7800116733e-10
          0 2.5331352738e-06 0 -2.8817453018e-10 -3.3011442409e-10 0
          4.2207571553e-06 2.6573274585e-06 -1.6285653505e-10 2.5695922499e-06 6.6322991399e-07 4.6878156679e-07
          4.2444285329e-06 3.7967659463e-06 -4.4031827922e-08 3.0011414668e-06 2.6846625939e-06 5.6744596635e-06
          2.6359486137e-06 2.8073711684e-06 4.0124124807e-06 4.6773210034e-06 -1.1445314031e-09 -1.9041342343e-08
          -8.6350632088e-10 -6.7055156224e-10 1.0912008172e-06 1.1624049763e-06 -4.9912027952e-10 1.9370483022e-06
          -2.0503718448e-06 -1.4501361807e-06 -1.4267776758e-06 2.8723578207e-07 -1.6606317585e-06 -1.0091430327e-06
          2.0305694643e-07 1.873712559e-06 -1.4187299966e-06 -2.0601198824e-07 1.3248500581e-06 1.0904473202e-06
          -1.6760874884e-09 -6.8894780858e-07 -1.4168984512e-09 -1.0098362198e-09 -5.8860825477e-07 -8.5915542655e-08
          -8.4165435091e-10 4.5115734153e-07 -6.9538289622e-07 -4.9172828094e-07 -1.6930288876e-06 -1.4475379669e-06
          -3.1883828763e-07 -1.1974331419e-06 -1.0233701393e-06 -8.4120987071e-07 -1.2225323627e-06 -1.450541587e-06
          -5.9480797252e-07 -1.0593380165e-06 -2.1058809637e-09 -1.3310588937e-07 -1.9007833574e-09 -1.3164746124e-09
          -5.0756318388e-07 -6.0138777217e-07 -1.1683409413e-09 -4.3940088149e-07 1.2140788123e-06 8.5942376182e-07
          3.8716527578e-07 -1.5380729314e-06 1.1919573295e-06 2.7417160265e-07 -1.0871230954e-06 -1.6434753072e-06
          5.5886206273e-07 -1.3669925269e-06 -1.1617089311e-06 -1.5234442267e-06 -2.9071188447e-09 4.9326166815e-07
          -2.366666046e-09 -1.5463978155e-09 2.3078897169e-07 -5.6675315633e-07 -1.4902706168e-09 -6.3150913119e-07
          1.4091437362e-06 9.9929273467e-07 1.5674657217e-06 -8.6837122483e-07 1.2293028122e-06 1.1098147438e-06
          -6.1463096681e-07 -1.2523175297e-06 1.4181766819e-06 -7.4577128812e-07 -8.8525752567e-07 -1.0903400926e-06
          -1.1388177732e-08 5.0185837765e-07 -2.2331399618e-09 1.0626677146e-09 5.8650050547e-07 -3.0885220749e-07
          -1.3484057632e-09 -4.5238131289e-07 0 -2.5698477489e-05 0 -1.8171488564e-05
          0 -3.0581422299e-05 -2.7143162821e-05 0 -7.5850607605e-06 0
          -2.1624306904e-05 -1.91932376e-05 -2.0626850789e-05 0 -2.6990996884e-05 -2.5289516869e-05
          -1.4585435585e-05 -2.2432079645e-05 0 -1.5501163661e-09 0 -3.1427351485e-06
          0 -7.8750122445e-10 -9.9780845012e-10 0 -1.118048253e-05 -1.0476009999e-05
          -5.0615801637e-10 -9.2920343016e-06 3.3194448468e-05 2.3471979092e-05 2.6185265284e-06 -1.6586150008e-05
          4.4419608372e-05 1.8516497933e-06 -1.1728628457e-05 -2.4262473528e-05 1.837430694e-05 -1.1675369515e-05
          -1.715640857e-05 -2.0175175185e-05 -2.9720101244e-09 1.8397591419e-05 -2.251310385e-09 -1.9208629956e-09
          7.6096626193e-06 -4.8374022929e-06 -1.4616570326e-09 -8.3578448536e-06 8.9012204106e-05 6.2940436867e-05
          6.2977825864e-05 3.9238892645e-06 8.9732581075e-05 4.4531770559e-05 2.7734669339e-06 -6.4785825836e-06
          6.9148368658e-05 6.9382358533e-06 -4.5817865433e-06 -2.1211231258e-06 -4.3861585604e-09 3.7166008338e-05
          -3.6873804637e-09 -2.7564198299e-09 2.8640152259e-05 2.8719878829e-06 -2.3585496932e-09 -8.8021266488e-07
          0.00012142380629 8.5856751421e-05 0.00010934117453 2.0193936303e-05 0.00011211371875 7.7314466518e-05
          1.4276575642e-05 1.3207252878e-05 0.00010465732162 1.9741404199e-05 9.3372085197e-06 1.4478411827e-05
          -5.950193424e-09 4.6434991729e-05 -5.1183780331e-09 -3.3941744839e-09 4.3347534985e-05 8.174134391e-06
          -3.1188928031e-09 5.994839411e-06 0.00011591375864 8.1959087168e-05 0.00012388513341 2.4806726495e-05
          0.00010214920062 8.7595788493e-05 1.7536172282e-05 2.4171767317e-05 0.00011138707854 2.2155044088e-05
          1.7088192457e-05 2.234098684e-05 -9.1097499475e-09 4.2305592668e-05 -6.7213531616e-09 -3.1812280598e-09
          4.6132777261e-05 9.1727459233e-06 -3.4494799785e-09 9.2500555348e-06 7.0686986857e-05 4.9981340867e-05
          9.7747978121e-05 1.6541454396e-05 6.0740530058e-05 6.9113515292e-05 1.1691207757e-05 2.2120995712e-05
          8.4931100308e-05 1.4242348752e-05 1.5636727196e-05 1.9340392374e-05 -7.0067703653e-08 2.5115784819e-05
          -1.6011160985e-08 3.3066016269e-09 3.5167524582e-05 5.9026617674e-06 -4.2018091911e-09 8.0079487767e-06
          0 0.00025952846185 0 0.00018351455847 0 0.0001724257091
          0.00013112779789 0 0.00035254073921 0 0.00012192341782 9.2721897365e-05
          6.9927874006e-05 0 0.00021106857344 0.00017039169803 4.9446668006e-05 9.2604362897e-05
          0 -2.098286217e-09 0 0.000146027169 0 -1.024320203e-09
          -2.0337137236e-09 0 8.7427631193e-05 7.0577895538e-05 -1.0175023509e-09 3.8357699022e-05
          0.0005717154993 0.00040426499066 0.00039560645446 0.00024094810498 0.00065075169546 0.00027973649098
          0.00017037754625 0.0001839005229 0.00049351346669 0.00026222952342 0.00013003824708 0.00021457753535
          -4.2862012629e-09 0.00026954983894 -3.1335556146e-09 -3.9992865608e-09 0.00020441977791 0.00010861779998
          -2.9767066666e-09 8.8879986181e-05 0.0009513709684 0.00067272502211 0.00076567729369 0.0003567502942
          0.00094951756944 0.00054141781426 0.0002522637285 0.00030035404938 0.00080895916529 0.0003507743539
          0.00021238462793 0.00030899805712 -7.6782407521e-09 0.00039330240974 -5.7068642704e-09 -6.4786197754e-09
          0.00033508139905 0.0001452935293 -5.146865668e-09 0.00012798963474 0.0011817801774 0.00083565932469
          0.0010981020339 0.00042578665796 0.0010907964244 0.00077648306126 0.00030108326467 0.0004011732056
          0.0010484180034 0.00039143713656 0.00028367677524 0.00037997211053 -1.4346142833e-08 0.00045182340393
          -1.0343956348e-08 -9.5397665405e-09 0.00043426842643 0.00016213642795 -7.9452795345e-09 0.00015738727883
          0.0010927436715 0.00077270864107 0.0011825952273 0.00039023871748 0.00096307404463 0.00083624290213
          0.00027594873999 0.00042330567926 0.0010633162528 0.0003437128862 0.00029933070312 0.00037992267086
          -3.3686653941e-08 0.00039890603308 -2.1836122752e-08 -1.1686218001e-08 0.00044043973355 0.00014236972149
          -1.1456377738e-08 0.00015736740346 0.00065689980775 0.00046447124209 0.0009132944041 0.0002347317486
          0.00056453315944 0.00064579824965 0.00016598569313 0.00032610156577 0.00079358502955 0.0002017473169
          0.00023059724821 0.00028331833073 -1.8045423675e-07 0.00023365297183 -3.9360703217e-08 4.2596926758e-08
          0.00032865238778 8.3599355206e-05 -5.2084027377e-09 0.00011736063518 0 0.00098067088657
          0 0.000693436988 0 7.7450704805e-05 0.00012312878445 0
          0.0020070343977 0 5.4765649763e-05 8.7063666157e-05 -0.00014761440766 0
          0.00043484550786 0.00049871154379 -0.00010437955723 -3.6605810647e-05 0 -8.3968399508e-10
          0 0.0008313449055 0 -4.060753326e-10 -1.4095331976e-09 0
          0.0001801217285 0.00020657471476 -6.9541177658e-10 -1.5161289236e-05 0.0041902960975 0.0029629771839
          0.0024955315443 0.0013208425043 0.0048037173808 0.0017646023966 0.00093397109873 0.00066095994177
          0.0033823259578 0.0015947071905 0.00046736610637 0.0010112887936 -1.1525173079e-09 0.0019897684065
          -1.2544373758e-09 -2.6349992362e-09 0.0014010095454 0.00066055015567 -2.1014966626e-09 0.00041889096023
          0.0071399217534 0.0050486596534 0.0058128861615 0.0026133212806 0.0070131020055 0.00411031466
          0.0018478844977 0.0020056611986 0.0060647674261 0.0026173592991 0.0014182078296 0.0021556388171
          3.2939516396e-09 0.0029049219166 8.2211242234e-11 -2.8104019271e-09 0.0025121108493 0.0010841455017
          -2.8891503785e-09 0.00089289491563 0.008368110042 0.0059170658475 0.008024516485 0.00330031914
          0.0076394791389 0.0056741436007 0.0023336535052 0.0030649158231 0.0075556512603 0.0030403253287
          0.0021672051852 0.0029241998011 1.8887216868e-08 0.0031643475515 8.7645893078e-09 -3.3561373235e-09
          0.0031296468412 0.0012593393109 -2.8139306851e-09 0.00121124218 0.0073235416531 0.0051783338
          0.0081319402991 0.0030145706115 0.0064221387935 0.00575001841 0.0021316066553 0.0032862765581
          0.0072559866845 0.0026534250886 0.0023237205391 0.0029499252743 5.9532516041e-08 0.0026600280839
          3.7918196954e-08 -9.578831467e-09 0.0030054598079 0.0010990978025 -3.7757484847e-09 0.00122189371
          0.0042519717372 0.0030063394405 0.005998786737 0.0017904862691 0.0036499063191 0.0042415283867