/*--------------------------------*- C++ -*----------------------------------*\
| =========                 |                                                 |
| \\      /  F ield         | OpenFOAM Extend Project: Open source CFD        |
|  \\    /   O peration     | Version:  1.6-ext                               |
|   \\  /    A nd           | Web:      www.extend-project.de                 |
|    \\/     M anipulation  |                                                 |
\*---------------------------------------------------------------------------*/
FoamFile
{
    version     2.0;
    format      ascii;
    class       volScalarField;
    location    "4000";
    object      delayedNeutronSource;
}
// * * * * * * * * * * * * * * * * * * * * * * * * * * * * * * * * * * * * * //

dimensions      [0 -3 -1 0 0 0 0];

internalField   nonuniform List<scalar> 
40000
(
8.95688453e+14
1.06387092e+15
1.23215155e+15
1.40210495e+15
1.57527548e+15
1.75408564e+15
1.93170763e+15
2.11037587e+15
2.28984846e+15
2.4699089e+15
2.65038369e+15
2.83113716e+15
3.01206492e+15
3.19308784e+15
3.37414701e+15
3.55519964e+15
3.73621578e+15
3.91717574e+15
4.09806806e+15
4.27888793e+15
4.45963593e+15
4.64031709e+15
4.82094013e+15
5.00151685e+15
5.18206167e+15
5.36259121e+15
5.54312399e+15
5.72368013e+15
5.90428113e+15
6.08494956e+15
6.26570893e+15
6.44658337e+15
6.62759747e+15
6.80877602e+15
6.99014375e+15
7.17172511e+15
7.35354396e+15
7.53562332e+15
7.71798504e+15
7.90064953e+15
8.08363537e+15
8.26695901e+15
8.45063439e+15
8.63467256e+15
8.81908127e+15
9.00386459e+15
9.18902244e+15
9.37455022e+15
9.56043826e+15
9.74667143e+15
9.93322866e+15
1.01200824e+16
1.03071979e+16
1.04952266e+16
1.06842567e+16
1.08739332e+16
1.10640146e+16
1.12543057e+16
1.14446326e+16
1.16348306e+16
1.18247389e+16
1.20141973e+16
1.22030446e+16
1.23911171e+16
1.25782482e+16
1.2764268e+16
1.29490026e+16
1.31322743e+16
1.3313901e+16
1.34936966e+16
1.36714707e+16
1.38470288e+16
1.4020172e+16
1.41906975e+16
1.43583983e+16
1.45230637e+16
1.46844787e+16
1.48424248e+16
1.49966794e+16
1.51470159e+16
1.52932037e+16
1.5435008e+16
1.5572189e+16
1.57045023e+16
1.58316973e+16
1.59535174e+16
1.60696986e+16
1.61799685e+16
1.62840453e+16
1.63816359e+16
1.6472435e+16
1.65561227e+16
1.6632363e+16
1.67008017e+16
1.67610643e+16
1.68127536e+16
1.68554476e+16
1.68886963e+16
1.69120166e+16
1.69248833e+16
1.06127451e+15
1.26007138e+15
1.46086805e+15
1.67752932e+15
1.89868862e+15
2.12419773e+15
2.35303056e+15
2.58390508e+15
2.81581155e+15
3.04798701e+15
3.27986401e+15
3.51102468e+15
3.74116404e+15
3.97006197e+15
4.19756212e+15
4.42355617e+15
4.64797217e+15
4.87076577e+15
5.09191381e+15
5.31140949e+15
5.5292588e+15
5.74547785e+15
5.9600909e+15
6.17312893e+15
6.3846285e+15
6.59463098e+15
6.8031819e+15
7.01033053e+15
7.21612947e+15
7.42063438e+15
7.62390372e+15
7.82599855e+15
8.0269823e+15
8.22692056e+15
8.42588093e+15
8.62393275e+15
8.82114691e+15
9.01759562e+15
9.21335213e+15
9.4084905e+15
9.60308529e+15
9.79721127e+15
9.99094308e+15
1.01843549e+16
1.03775201e+16
1.05705108e+16
1.07633976e+16
1.09562488e+16
1.11491303e+16
1.1342105e+16
1.15352319e+16
1.1728566e+16
1.19221569e+16
1.21169212e+16
1.23139852e+16
1.25130059e+16
1.27137315e+16
1.2915956e+16
1.31194982e+16
1.33241905e+16
1.35298724e+16
1.3736386e+16
1.3943573e+16
1.41512724e+16
1.43593187e+16
1.45675412e+16
1.47757626e+16
1.49837983e+16
1.5191456e+16
1.5398535e+16
1.56048258e+16
1.581011e+16
1.60141597e+16
1.62167374e+16
1.64175956e+16
1.66164769e+16
1.68131133e+16
1.70072262e+16
1.71985261e+16
1.7386712e+16
1.75714713e+16
1.77524789e+16
1.79293967e+16
1.81018729e+16
1.82695406e+16
1.84320169e+16
1.85889014e+16
1.87397742e+16
1.88841936e+16
1.90216937e+16
1.91517811e+16
1.92739302e+16
1.93875786e+16
1.94921194e+16
1.95868916e+16
1.96711661e+16
1.97441229e+16
1.98048182e+16
1.98521145e+16
1.98845649e+16
1.22602798e+15
1.45515423e+15
1.70618091e+15
1.97062705e+15
2.24828641e+15
2.5351765e+15
2.82786714e+15
3.12371819e+15
3.42077815e+15
3.71763065e+15
4.01325755e+15
4.30693199e+15
4.59813872e+15
4.88651624e+15
5.17181493e+15
5.45386695e+15
5.73256454e+15
6.00784428e+15
6.27967589e+15
6.54805387e+15
6.81299171e+15
7.07451748e+15
7.33267078e+15
7.5875005e+15
7.83906321e+15
8.08742198e+15
8.33264564e+15
8.5748081e+15
8.813988e+15
9.05026835e+15
9.28373629e+15
9.5144829e+15
9.74260304e+15
9.96819513e+15
1.0191361e+16
1.04122058e+16
1.06308374e+16
1.0847367e+16
1.10619078e+16
1.12745756e+16
1.14854882e+16
1.1694765e+16
1.19025266e+16
1.21088949e+16
1.23139919e+16
1.25179402e+16
1.27208616e+16
1.29228774e+16
1.31241074e+16
1.33246693e+16
1.35246783e+16
1.37242459e+16
1.3923479e+16
1.41230463e+16
1.43249633e+16
1.4528964e+16
1.47348558e+16
1.49424836e+16
1.51517126e+16
1.53624189e+16
1.55744839e+16
1.57877901e+16
1.60022183e+16
1.62176454e+16
1.64339426e+16
1.66509736e+16
1.68685938e+16
1.70866491e+16
1.73049745e+16
1.75233941e+16
1.77417198e+16
1.79597506e+16
1.81772726e+16
1.83940581e+16
1.86098649e+16
1.88244365e+16
1.90375012e+16
1.92487721e+16
1.94579463e+16
1.96647051e+16
1.98687129e+16
2.00696173e+16
2.02670483e+16
2.04606177e+16
2.06499184e+16
2.08345233e+16
2.10139843e+16
2.11878306e+16
2.13555672e+16
2.15166718e+16
2.16705917e+16
2.18167394e+16
2.19544848e+16
2.2083146e+16
2.22019724e+16
2.23101204e+16
2.24066109e+16
2.24902603e+16
2.25595397e+16
2.26123206e+16
1.39353441e+15
1.66761284e+15
1.96833032e+15
2.29383505e+15
2.63788394e+15
2.99408955e+15
3.35740646e+15
3.72411387e+15
4.09154216e+15
4.45779928e+15
4.82155258e+15
5.18186786e+15
5.53809401e+15
5.88978156e+15
6.23662515e+15
6.57842312e+15
6.91504883e+15
7.24643036e+15
7.57253611e+15
7.89336444e+15
8.2089364e+15
8.5192905e+15
8.82447895e+15
9.1245651e+15
9.41962157e+15
9.70972895e+15
9.99497495e+15
1.02754538e+16
1.05512657e+16
1.08225166e+16
1.10893183e+16
1.13517878e+16
1.16100471e+16
1.18642238e+16
1.21144501e+16
1.23608632e+16
1.26036048e+16
1.2842821e+16
1.3078662e+16
1.3311282e+16
1.35408384e+16
1.37674922e+16
1.39914068e+16
1.42127483e+16
1.44316844e+16
1.46483843e+16
1.4863018e+16
1.50757557e+16
1.52867672e+16
1.5496221e+16
1.57042835e+16
1.59111179e+16
1.61168831e+16
1.63218428e+16
1.65287706e+16
1.67374733e+16
1.69478198e+16
1.71597111e+16
1.73730655e+16
1.75878093e+16
1.78038721e+16
1.80211823e+16
1.82396648e+16
1.84592382e+16
1.86798135e+16
1.89012917e+16
1.91235628e+16
1.93465045e+16
1.95699806e+16
1.97938402e+16
2.0017917e+16
2.02420275e+16
2.04659711e+16
2.06895289e+16
2.09124634e+16
2.11345176e+16
2.1355415e+16
2.15748591e+16
2.17925334e+16
2.20081014e+16
2.22212066e+16
2.24314729e+16
2.26385053e+16
2.28418902e+16
2.30411964e+16
2.3235976e+16
2.34257656e+16
2.36100874e+16
2.37884504e+16
2.39603509e+16
2.41252727e+16
2.4282686e+16
2.44320429e+16
2.45727697e+16
2.47042501e+16
2.4825796e+16
2.49365934e+16
2.50356071e+16
2.51213809e+16
2.51916544e+16
1.56628833e+15
1.89426667e+15
2.25914514e+15
2.65480146e+15
3.07138902e+15
3.50085186e+15
3.93722341e+15
4.37624349e+15
4.81491324e+15
5.25113197e+15
5.68342996e+15
6.11077981e+15
6.53246494e+15
6.94798858e+15
7.35701051e+15
7.759303e+15
8.15471993e+15
8.54317501e+15
8.92462647e+15
9.29906602e+15
9.66651115e+15
1.00269996e+16
1.03805853e+16
1.07273359e+16
1.10673303e+16
1.14006577e+16
1.17274167e+16
1.20477141e+16
1.2361665e+16
1.26693922e+16
1.29710262e+16
1.32667047e+16
1.35565724e+16
1.38407814e+16
1.41194904e+16
1.43928649e+16
1.46610769e+16
1.49243044e+16
1.51827315e+16
1.54365481e+16
1.5685949e+16
1.59311341e+16
1.61723077e+16
1.6409678e+16
1.66434566e+16
1.68738579e+16
1.71010986e+16
1.73253964e+16
1.75469701e+16
1.77660379e+16
1.79828167e+16
1.81975206e+16
1.84103597e+16
1.86211535e+16
1.88333618e+16
1.90468593e+16
1.92615746e+16
1.94774646e+16
1.96945003e+16
1.99126592e+16
2.01319194e+16
2.03522556e+16
2.0573637e+16
2.07960237e+16
2.10193653e+16
2.12435988e+16
2.14686468e+16
2.16944156e+16
2.19207943e+16
2.21476528e+16
2.23748407e+16
2.26021859e+16
2.28294937e+16
2.30565457e+16
2.3283099e+16
2.35088854e+16
2.37336112e+16
2.39569569e+16
2.4178577e+16
2.4398101e+16
2.46151337e+16
2.48292571e+16
2.50400316e+16
2.52469989e+16
2.54496851e+16
2.5647605e+16
2.58402665e+16
2.60271766e+16
2.62078485e+16
2.63818084e+16
2.65486036e+16
2.670781e+16
2.68590377e+16
2.7001933e+16
2.7136172e+16
2.7261441e+16
2.73773876e+16
2.74835243e+16
2.75790087e+16
2.76621916e+16
1.74749347e+15
2.14018455e+15
2.58027874e+15
3.05252028e+15
3.5449579e+15
4.0489405e+15
4.55838033e+15
5.06903174e+15
5.57793198e+15
6.08300352e+15
6.58278044e+15
7.07622269e+15
7.56258953e+15
8.0413533e+15
8.51213982e+15
8.97468715e+15
9.42881646e+15
9.8744115e+15
1.03114039e+16
1.07397628e+16
1.11594866e+16
1.15705984e+16
1.1973141e+16
1.23671746e+16
1.27527743e+16
1.31300288e+16
1.34990393e+16
1.38599182e+16
1.4212789e+16
1.45577858e+16
1.48950526e+16
1.52247433e+16
1.55470212e+16
1.58620591e+16
1.61700388e+16
1.64711509e+16
1.67655946e+16
1.70535773e+16
1.73353142e+16
1.76110283e+16
1.78809496e+16
1.81453148e+16
1.84043668e+16
1.86583543e+16
1.89075308e+16
1.91521543e+16
1.93924864e+16
1.96287914e+16
1.98613358e+16
2.00903864e+16
2.03162098e+16
2.05390708e+16
2.07592301e+16
2.09765164e+16
2.11940748e+16
2.14123501e+16
2.16313269e+16
2.18510161e+16
2.20714413e+16
2.22926308e+16
2.25146119e+16
2.27374069e+16
2.29610296e+16
2.31854825e+16
2.34107548e+16
2.36368193e+16
2.38636312e+16
2.40911252e+16
2.43192142e+16
2.45477871e+16
2.47767069e+16
2.50058094e+16
2.52349014e+16
2.54637593e+16
2.56921279e+16
2.59197195e+16
2.6146213e+16
2.63712541e+16
2.65944546e+16
2.6815394e+16
2.70336202e+16
2.7248652e+16
2.74599821e+16
2.76670814e+16
2.78694051e+16
2.80663996e+16
2.82575122e+16
2.84422022e+16
2.86199552e+16
2.87902994e+16
2.8952824e+16
2.91072007e+16
2.92532053e+16
2.93907387e+16
2.9519844e+16
2.96407118e+16
2.97536636e+16
2.98590908e+16
2.99572758e+16
3.00479836e+16
1.93190926e+15
2.40523141e+15
2.92845426e+15
3.48115023e+15
4.05081107e+15
4.62921588e+15
5.21082041e+15
5.79181366e+15
6.36952758e+15
6.94206126e+15
7.50803858e+15
8.06645005e+15
8.61654753e+15
9.15777322e+15
9.68971065e+15
1.02120504e+16
1.07245657e+16
1.12270946e+16
1.17195271e+16
1.22017953e+16
1.26738664e+16
1.3135737e+16
1.3587429e+16
1.40289866e+16
1.44604736e+16
1.48819715e+16
1.52935784e+16
1.56954077e+16
1.60875868e+16
1.64702572e+16
1.68435732e+16
1.72077017e+16
1.75628219e+16
1.79091246e+16
1.82468122e+16
1.85760981e+16
1.88972063e+16
1.92103712e+16
1.95158372e+16
1.98138581e+16
2.0104697e+16
2.03886251e+16
2.0665922e+16
2.09368746e+16
2.12017764e+16
2.1460927e+16
2.17146314e+16
2.19631983e+16
2.22069402e+16
2.24461714e+16
2.26812067e+16
2.29123601e+16
2.31399425e+16
2.33642596e+16
2.35871529e+16
2.38101311e+16
2.40332329e+16
2.42565221e+16
2.4480075e+16
2.47039711e+16
2.4928288e+16
2.51530961e+16
2.53784558e+16
2.56044135e+16
2.58309993e+16
2.6058224e+16
2.62860768e+16
2.65145222e+16
2.67434982e+16
2.69729136e+16
2.72026454e+16
2.74325371e+16
2.76623963e+16
2.78919927e+16
2.81210562e+16
2.8349276e+16
2.85762988e+16
2.88017286e+16
2.90251264e+16
2.9246011e+16
2.94638603e+16
2.96781144e+16
2.98881794e+16
3.00934331e+16
3.02932333e+16
3.04869283e+16
3.067387e+16
3.08534318e+16
3.10250294e+16
3.11881477e+16
3.13423722e+16
3.14874263e+16
3.16232144e+16
3.17498696e+16
3.18678041e+16
3.19777595e+16
3.20808472e+16
3.21785677e+16
3.22727507e+16
3.23653413e+16
2.12230511e+15
2.68692916e+15
3.29828217e+15
3.93336202e+15
4.58053238e+15
5.23279062e+15
5.88557928e+15
6.5357741e+15
7.18114404e+15
7.82004246e+15
8.4512222e+15
9.07372053e+15
9.68678465e+15
1.02898219e+16
1.08823648e+16
1.14640463e+16
1.2034581e+16
1.25937513e+16
1.31413962e+16
1.36774028e+16
1.42016997e+16
1.47142512e+16
1.52150531e+16
1.57041292e+16
1.61815283e+16
1.66473218e+16
1.71016021e+16
1.75444811e+16
1.79760884e+16
1.83965708e+16
1.88060914e+16
1.92048285e+16
1.95929754e+16
1.99707395e+16
2.0338342e+16
2.06960174e+16
2.10440129e+16
2.1382588e+16
2.17120142e+16
2.20325743e+16
2.23445621e+16
2.26482817e+16
2.29440468e+16
2.32321804e+16
2.35130138e+16
2.37868862e+16
2.40541431e+16
2.43151361e+16
2.45702214e+16
2.48197586e+16
2.50641089e+16
2.53036339e+16
2.55386932e+16
2.57696416e+16
2.59979005e+16
2.6225556e+16
2.6452703e+16
2.66794599e+16
2.69059561e+16
2.71323236e+16
2.73586905e+16
2.75851771e+16
2.78118913e+16
2.80389249e+16
2.8266351e+16
2.84942202e+16
2.87225577e+16
2.89513602e+16
2.9180593e+16
2.9410187e+16
2.96400357e+16
2.9869992e+16
3.00998662e+16
3.03294223e+16
3.05583766e+16
3.07863949e+16
3.10130911e+16
3.12380255e+16
3.14607051e+16
3.16805829e+16
3.18970602e+16
3.21094886e+16
3.23171755e+16
3.25193901e+16
3.27153733e+16
3.29043509e+16
3.30855505e+16
3.32582242e+16
3.34216768e+16
3.35753023e+16
3.37186288e+16
3.3851373e+16
3.39735072e+16
3.40853382e+16
3.41876011e+16
3.42815675e+16
3.436917e+16
3.44531461e+16
3.45371825e+16
3.46260748e+16
2.3185139e+15
2.98197867e+15
3.68415732e+15
4.40228153e+15
5.12674721e+15
5.85227982e+15
6.57554074e+15
7.29419962e+15
8.00651111e+15
8.71110339e+15
9.40686487e+15
1.00928796e+16
1.07683871e+16
1.14327557e+16
1.20854627e+16
1.27260794e+16
1.33542586e+16
1.3969724e+16
1.45722618e+16
1.51617128e+16
1.57379657e+16
1.63009521e+16
1.68506412e+16
1.73870365e+16
1.79101716e+16
1.8420108e+16
1.89169325e+16
1.94007552e+16
1.9871708e+16
2.0329943e+16
2.07756312e+16
2.12089621e+16
2.16301423e+16
2.20393947e+16
2.24369584e+16
2.28230875e+16
2.3198051e+16
2.3562132e+16
2.39156271e+16
2.42588462e+16
2.45921118e+16
2.49157583e+16
2.52301318e+16
2.55355887e+16
2.58324958e+16
2.61212291e+16
2.64021726e+16
2.66757179e+16
2.69422626e+16
2.7202209e+16
2.74559628e+16
2.77039307e+16
2.79465188e+16
2.81841295e+16
2.84177632e+16
2.86500642e+16
2.88811829e+16
2.91112917e+16
2.9340573e+16
2.9569211e+16
2.97973853e+16
3.00252661e+16
3.02530099e+16
3.04807552e+16
3.07086193e+16
3.09366944e+16
3.11650439e+16
3.13936988e+16
3.16226543e+16
3.18518661e+16
3.20812465e+16
3.23106612e+16
3.25399257e+16
3.27688014e+16
3.29969933e+16
3.32241462e+16
3.34498428e+16
3.36736012e+16
3.38948743e+16
3.41130488e+16
3.43274466e+16
3.45373274e+16
3.47418928e+16
3.49402943e+16
3.51316431e+16
3.53150256e+16
3.54895228e+16
3.56542374e+16
3.58083282e+16
3.59510552e+16
3.6081837e+16
3.62003226e+16
3.63064826e+16
3.64007221e+16
3.6484022e+16
3.65581177e+16
3.66257273e+16
3.6690863e+16
3.67592626e+16
3.68391192e+16
2.5200265e+15
3.2871286e+15
4.08116467e+15
4.88224295e+15
5.68362141e+15
6.48201661e+15
7.27537619e+15
8.0621658e+15
8.84111e+15
9.61109481e+15
1.03711313e+16
1.1120342e+16
1.18579549e+16
1.25832981e+16
1.32957952e+16
1.39949586e+16
1.46803829e+16
1.53517377e+16
1.60087607e+16
1.66512505e+16
1.72790606e+16
1.78920935e+16
1.84902959e+16
1.90736538e+16
1.96421888e+16
2.01959548e+16
2.0735035e+16
2.12595395e+16
2.17696035e+16
2.2265385e+16
2.27470639e+16
2.32148404e+16
2.36689344e+16
2.41095838e+16
2.45370446e+16
2.49515895e+16
2.53535077e+16
2.57431041e+16
2.61206991e+16
2.64866273e+16
2.6841238e+16
2.71848936e+16
2.75179696e+16
2.78408539e+16
2.81539458e+16
2.84576556e+16
2.8752403e+16
2.9038617e+16
2.93167338e+16
2.9587196e+16
2.98504506e+16
3.01069474e+16
3.03571364e+16
3.06014655e+16
3.08405188e+16
3.10774781e+16
3.13125479e+16
3.15459533e+16
3.17779288e+16
3.20087099e+16
3.22385272e+16
3.24676007e+16
3.26961356e+16
3.29243176e+16
3.31523092e+16
3.33802451e+16
3.36082285e+16
3.38363267e+16
3.4064567e+16
3.42929322e+16
3.45213566e+16
3.47497214e+16
3.49778507e+16
3.52055069e+16
3.5432387e+16
3.56581184e+16
3.5882256e+16
3.61042788e+16
3.63235882e+16
3.65395065e+16
3.67512776e+16
3.69580684e+16
3.71589735e+16
3.7353022e+16
3.75391887e+16
3.77164097e+16
3.78836045e+16
3.80397056e+16
3.81836981e+16
3.83146723e+16
3.84318913e+16
3.85348799e+16
3.86235376e+16
3.86982863e+16
3.87602617e+16
3.88115676e+16
3.88556254e+16
3.88976857e+16
3.89456279e+16
3.90114547e+16
2.72619536e+15
3.59953234e+15
4.48534623e+15
5.36888309e+15
6.24678185e+15
7.11782285e+15
7.98119357e+15
8.83609002e+15
9.68165146e+15
1.05169833e+16
1.1341196e+16
1.21534395e+16
1.29529271e+16
1.37389501e+16
1.45108845e+16
1.52681925e+16
1.601042e+16
1.67371922e+16
1.74482075e+16
1.81432316e+16
1.88220906e+16
1.94846658e+16
2.01308872e+16
2.07607295e+16
2.13742068e+16
2.19713695e+16
2.25523005e+16
2.31171126e+16
2.3665946e+16
2.41989663e+16
2.47163628e+16
2.52183473e+16
2.57051523e+16
2.61770305e+16
2.66342538e+16
2.70771125e+16
2.75059145e+16
2.79209852e+16
2.8322666e+16
2.8711315e+16
2.90873052e+16
2.94510249e+16
2.98028768e+16
3.01432771e+16
3.04726551e+16
3.07914524e+16
3.11001219e+16
3.13991266e+16
3.16889389e+16
3.19700386e+16
3.22429114e+16
3.25080473e+16
3.27659379e+16
3.30170738e+16
3.32616307e+16
3.35033069e+16
3.37423589e+16
3.39790631e+16
3.42137044e+16
3.44465688e+16
3.46779367e+16
3.49080775e+16
3.51372445e+16
3.53656707e+16
3.55935639e+16
3.58211023e+16
3.60484297e+16
3.62756509e+16
3.65028271e+16
3.67299705e+16
3.69570397e+16
3.71839345e+16
3.74104907e+16
3.7636475e+16
3.78615802e+16
3.80854205e+16
3.83075267e+16
3.8527343e+16
3.87442232e+16
3.8957429e+16
3.91661291e+16
3.93694004e+16
3.95662311e+16
3.9755528e+16
3.99361266e+16
4.01068074e+16
4.02663191e+16
4.04134099e+16
4.05468709e+16
4.06655942e+16
4.07686502e+16
4.0855389e+16
4.09255758e+16
4.09795696e+16
4.10185651e+16
4.10449252e+16
4.10626608e+16
4.10781702e+16
4.11014748e+16
4.11486694e+16
2.93635574e+15
3.91685174e+15
4.89366301e+15
5.8589661e+15
6.81304066e+15
7.75666884e+15
8.69015977e+15
9.61333521e+15
1.05256732e+16
1.142645e+16
1.23148484e+16
1.31900344e+16
1.40512063e+16
1.48976248e+16
1.57286291e+16
1.6543644e+16
1.73421803e+16
1.81238322e+16
1.88882719e+16
1.96352437e+16
2.03645575e+16
2.10760823e+16
2.17697404e+16
2.24455017e+16
2.31033791e+16
2.37434242e+16
2.43657236e+16
2.49703958e+16
2.55575885e+16
2.61274762e+16
2.66802589e+16
2.72161597e+16
2.77354244e+16
2.82383195e+16
2.87251321e+16
2.91961687e+16
2.96517545e+16
3.0092233e+16
3.05179654e+16
3.09293302e+16
3.13267224e+16
3.17105534e+16
3.20812501e+16
3.24392547e+16
3.27850234e+16
3.31190264e+16
3.34417466e+16
3.37536785e+16
3.40553272e+16
3.4347207e+16
3.46298396e+16
3.49037523e+16
3.51694755e+16
3.54275399e+16
3.56777223e+16
3.59242168e+16
3.61673299e+16
3.6407387e+16
3.66447221e+16
3.687967e+16
3.71125598e+16
3.73437091e+16
3.7573419e+16
3.78019691e+16
3.80296124e+16
3.82565708e+16
3.84830293e+16
3.87091313e+16
3.89349731e+16
3.91605981e+16
3.93859913e+16
3.96110735e+16
3.98356952e+16
4.00596308e+16
4.02825727e+16
4.05041254e+16
4.07238005e+16
4.09410113e+16
4.11550689e+16
4.13651787e+16
4.15704388e+16
4.17698397e+16
4.19622669e+16
4.21465065e+16
4.23212554e+16
4.2485137e+16
4.26367243e+16
4.27745723e+16
4.28972642e+16
4.3003473e+16
4.30920456e+16
4.31621164e+16
4.32132597e+16
4.32456987e+16
4.32605931e+16
4.32604508e+16
4.32497409e+16
4.32358796e+16
4.32309584e+16
4.32553254e+16
3.14988276e+15
4.23723563e+15
5.30384565e+15
6.35014186e+15
7.38010304e+15
8.39636204e+15
9.40019061e+15
1.0391913e+16
1.13712624e+16
1.23376343e+16
1.32902575e+16
1.42283046e+16
1.51509611e+16
1.60574664e+16
1.69471365e+16
1.78193742e+16
1.86736714e+16
1.95096072e+16
2.03268423e+16
2.11251136e+16
2.19042264e+16
2.26640485e+16
2.34045029e+16
2.41255631e+16
2.48272469e+16
2.55096124e+16
2.61727539e+16
2.68167989e+16
2.74419046e+16
2.80482564e+16
2.86360653e+16
2.92055666e+16
2.97570185e+16
3.0290701e+16
3.08069153e+16
3.13059824e+16
3.17882432e+16
3.22540577e+16
3.27038043e+16
3.31378798e+16
3.35566986e+16
3.39606926e+16
3.43503102e+16
3.47260166e+16
3.50882922e+16
3.54376329e+16
3.57745485e+16
3.60995621e+16
3.64132086e+16
3.6716034e+16
3.70085929e+16
3.7291447e+16
3.75651629e+16
3.7830309e+16
3.80862729e+16
3.83377251e+16
3.85850194e+16
3.88285284e+16
3.90686333e+16
3.93057161e+16
3.95401531e+16
3.97723089e+16
4.00025313e+16
4.02311459e+16
4.04584507e+16
4.06847109e+16
4.09101533e+16
4.11349603e+16
4.13592643e+16
4.15831414e+16
4.18066047e+16
4.20295983e+16
4.22519901e+16
4.24735651e+16
4.26940188e+16
4.29129501e+16
4.31298553e+16
4.33441217e+16
4.35550223e+16
4.37617113e+16
4.3963221e+16
4.41584603e+16
4.43462165e+16
4.45251589e+16
4.46938483e+16
4.4850752e+16
4.49942658e+16
4.51227473e+16
4.52345624e+16
4.53281496e+16
4.54021093e+16
4.5455326e+16
4.54871356e+16
4.54975597e+16
4.5487636e+16
4.5459904e+16
4.54191523e+16
4.53736595e+16
4.53374591e+16
4.53352076e+16
3.3662136e+15
4.55925017e+15
5.71422766e+15
6.84072261e+15
7.94632214e+15
9.03530352e+15
1.01097227e+16
1.11702782e+16
1.22168743e+16
1.32489777e+16
1.42658391e+16
1.52666311e+16
1.6250531e+16
1.72167687e+16
1.81646524e+16
1.909358e+16
2.00030422e+16
2.08926194e+16
2.1761977e+16
2.2610858e+16
2.34390762e+16
2.42465085e+16
2.50330886e+16
2.57988006e+16
2.65436738e+16
2.7267778e+16
2.79712192e+16
2.86541365e+16
2.93166992e+16
2.99591044e+16
3.05815749e+16
3.11843583e+16
3.17677248e+16
3.23319669e+16
3.28773985e+16
3.34043539e+16
3.39131877e+16
3.44042742e+16
3.48780069e+16
3.53347984e+16
3.577508e+16
3.61993013e+16
3.66079298e+16
3.70014505e+16
3.73803655e+16
3.77451932e+16
3.80964675e+16
3.8434737e+16
3.87605639e+16
3.90745225e+16
3.93771977e+16
3.96691831e+16
3.99510783e+16
4.02234869e+16
4.04854177e+16
4.07419991e+16
4.09936298e+16
4.12407273e+16
4.14837181e+16
4.17230295e+16
4.19590834e+16
4.21922903e+16
4.24230435e+16
4.26517136e+16
4.28786431e+16
4.31041404e+16
4.33284737e+16
4.3551865e+16
4.37744837e+16
4.39964395e+16
4.42177753e+16
4.44384603e+16
4.46583822e+16
4.48773394e+16
4.50950339e+16
4.53110626e+16
4.55249106e+16
4.57359437e+16
4.59434016e+16
4.61463925e+16
4.63438881e+16
4.65347215e+16
4.67175863e+16
4.689104e+16
4.70535117e+16
4.7203315e+16
4.73386699e+16
4.74577348e+16
4.75586529e+16
4.76396182e+16
4.7698967e+16
4.77353066e+16
4.77476947e+16
4.77358941e+16
4.77007411e+16
4.76446996e+16
4.75727376e+16
4.74938262e+16
4.74237704e+16
4.73914983e+16
3.58485293e+15
4.8817998e+15
6.12359855e+15
7.32950358e+15
8.51051298e+15
9.67231132e+15
1.08175552e+16
1.19471922e+16
1.306122e+16
1.41591326e+16
1.52401834e+16
1.63035419e+16
1.73483843e+16
1.8373944e+16
1.93795381e+16
2.03645774e+16
2.13285689e+16
2.22711116e+16
2.31918906e+16
2.40906695e+16
2.49672821e+16
2.58216254e+16
2.66536523e+16
2.74633652e+16
2.82508106e+16
2.90160745e+16
2.97592782e+16
3.04805754e+16
3.11801486e+16
3.18582078e+16
3.25149883e+16
3.31507492e+16
3.37657724e+16
3.43603617e+16
3.49348423e+16
3.54895601e+16
3.60248815e+16
3.65411928e+16
3.70389005e+16
3.75184306e+16
3.79802286e+16
3.84247591e+16
3.8852506e+16
3.92639717e+16
3.96596766e+16
4.00401591e+16
4.04059744e+16
4.07576938e+16
4.10959036e+16
4.14212039e+16
4.17342072e+16
4.20355357e+16
4.23258201e+16
4.26056961e+16
4.28738042e+16
4.31357131e+16
4.3391864e+16
4.36427172e+16
4.38887424e+16
4.41304104e+16
4.43681873e+16
4.46025278e+16
4.48338694e+16
4.50626271e+16
4.52891868e+16
4.55138996e+16
4.57370753e+16
4.59589756e+16
4.61798073e+16
4.63997145e+16
4.66187715e+16
4.68369741e+16
4.7054232e+16
4.72703599e+16
4.74850688e+16
4.76979573e+16
4.79085035e+16
4.81160558e+16
4.83198256e+16
4.85188799e+16
4.87121357e+16
4.88983553e+16
4.90761447e+16
4.92439552e+16
4.94000885e+16
4.95427092e+16
4.96698641e+16
4.97795131e+16
4.98695745e+16
4.99379909e+16
4.99828219e+16
5.00023766e+16
4.99954015e+16
4.99613515e+16
4.99007908e+16
4.9816008e+16
4.97120142e+16
4.95982963e+16
4.94922309e+16
4.9426904e+16
3.80537074e+15
5.20405479e+15
6.53108619e+15
7.81562773e+15
9.07181762e+15
1.03064965e+16
1.15227422e+16
1.27216344e+16
1.3903195e+16
1.50669087e+16
1.62120172e+16
1.73376872e+16
1.84431027e+16
1.95275155e+16
2.05902679e+16
2.16308016e+16
2.26486572e+16
2.36434683e+16
2.46149548e+16
2.55629134e+16
2.64872098e+16
2.73877706e+16
2.82645756e+16
2.91176522e+16
2.99470695e+16
3.07529337e+16
3.15353845e+16
3.22945917e+16
3.30307529e+16
3.37440916e+16
3.44348551e+16
3.5103314e+16
3.57497608e+16
3.63745093e+16
3.69778947e+16
3.75602725e+16
3.81220189e+16
3.86635303e+16
3.91852235e+16
3.96875356e+16
4.01709237e+16
4.06358653e+16
4.10828577e+16
4.15124177e+16
4.19250819e+16
4.23214055e+16
4.27019624e+16
4.30673438e+16
4.34181575e+16
4.37550267e+16
4.40785885e+16
4.43894916e+16
4.46883948e+16
4.49759636e+16
4.5252677e+16
4.55200039e+16
4.5780753e+16
4.60354242e+16
4.6284528e+16
4.65285778e+16
4.67680829e+16
4.70035419e+16
4.7235437e+16
4.7464227e+16
4.76903419e+16
4.79141758e+16
4.81360803e+16
4.83563575e+16
4.85752521e+16
4.87929437e+16
4.90095387e+16
4.92250612e+16
4.94394442e+16
4.96525206e+16
4.9864013e+16
5.00735246e+16
5.02805292e+16
5.04843619e+16
5.06842098e+16
5.08791035e+16
5.10679097e+16
5.12493257e+16
5.14218752e+16
5.15839084e+16
5.17336054e+16
5.18689862e+16
5.19879281e+16
5.20881949e+16
5.21674798e+16
5.222347e+16
5.22539394e+16
5.22568826e+16
5.22307079e+16
5.21745209e+16
5.20885514e+16
5.19748216e+16
5.1838256e+16
5.16886799e+16
5.15448216e+16
5.14437492e+16
4.0273967e+15
5.52539085e+15
6.93606719e+15
8.29848716e+15
9.62960985e+15
1.09371782e+16
1.22245209e+16
1.34927452e+16
1.47418372e+16
1.59712433e+16
1.71801847e+16
1.83678286e+16
1.95333782e+16
2.06761182e+16
2.17954334e+16
2.28908131e+16
2.39618478e+16
2.50082209e+16
2.60297003e+16
2.7026128e+16
2.79974114e+16
2.89435151e+16
2.98644532e+16
3.07602836e+16
3.16311021e+16
3.24770386e+16
3.32982534e+16
3.40949343e+16
3.48672946e+16
3.56155712e+16
3.63400236e+16
3.70409329e+16
3.77186012e+16
3.8373351e+16
3.90055256e+16
3.96154885e+16
4.02036234e+16
4.07703349e+16
4.13160478e+16
4.18412078e+16
4.23462815e+16
4.28317562e+16
4.32981403e+16
4.37459628e+16
4.41757734e+16
4.45881418e+16
4.49836578e+16
4.53629298e+16
4.57265848e+16
4.60752662e+16
4.64096333e+16
4.67303588e+16
4.70381269e+16
4.73336308e+16
4.7617569e+16
4.78906688e+16
4.8156373e+16
4.84152157e+16
4.86677429e+16
4.89145046e+16
4.91560476e+16
4.93929092e+16
4.96256112e+16
4.9854653e+16
5.00805052e+16
5.03036033e+16
5.05243396e+16
5.07430562e+16
5.09600366e+16
5.11754974e+16
5.13895791e+16
5.16023368e+16
5.18137305e+16
5.20236147e+16
5.22317281e+16
5.24376828e+16
5.26409535e+16
5.28408672e+16
5.30365921e+16
5.32271282e+16
5.34112985e+16
5.35877409e+16
5.37549036e+16
5.39110418e+16
5.40542202e+16
5.41823199e+16
5.42930538e+16
5.43839928e+16
5.44526065e+16
5.44963255e+16
5.45126319e+16
5.44991935e+16
5.44540586e+16
5.43759486e+16
5.42647042e+16
5.41219994e+16
5.39525507e+16
5.37663474e+16
5.35832383e+16
5.3444047e+16
4.25061338e+15
5.84534093e+15
7.33810011e+15
8.77765241e+15
1.01834286e+16
1.1563825e+16
1.29222641e+16
1.42597883e+16
1.5576299e+16
1.6871183e+16
1.81436371e+16
1.93928355e+16
2.06180131e+16
2.1818503e+16
2.29937485e+16
2.41433027e+16
2.52668209e+16
2.63640498e+16
2.74348173e+16
2.84790209e+16
2.94966185e+16
3.04876198e+16
3.14520792e+16
3.23900892e+16
3.33017763e+16
3.41872964e+16
3.50468319e+16
3.58805898e+16
3.66887993e+16
3.74717107e+16
3.8229595e+16
3.89627428e+16
3.96714646e+16
4.03560901e+16
4.10169692e+16
4.16544711e+16
4.22689855e+16
4.28609227e+16
4.34307134e+16
4.39788097e+16
4.45056852e+16
4.50118348e+16
4.54977755e+16
4.5964046e+16
4.64112065e+16
4.68398391e+16
4.72505466e+16
4.76439526e+16
4.80207001e+16
4.83814509e+16
4.87268838e+16
4.90576931e+16
4.93745862e+16
4.96782813e+16
4.99695041e+16
5.0248627e+16
5.05195148e+16
5.07827379e+16
5.10388798e+16
5.12885284e+16
5.15322697e+16
5.17706805e+16
5.20043222e+16
5.22337343e+16
5.24594275e+16
5.26818767e+16
5.29015137e+16
5.31187188e+16
5.33338128e+16
5.35470476e+16
5.37585973e+16
5.39685475e+16
5.41768853e+16
5.43834883e+16
5.45881126e+16
5.47903821e+16
5.4989776e+16
5.51856167e+16
5.53770589e+16
5.55630773e+16
5.57424568e+16
5.59137829e+16
5.60754345e+16
5.62255792e+16
5.63621729e+16
5.64829646e+16
5.65855087e+16
5.66671882e+16
5.67252525e+16
5.6756876e+16
5.6759246e+16
5.67296943e+16
5.66658924e+16
5.6566148e+16
5.64298659e+16
5.62582979e+16
5.60558403e+16
5.58324788e+16
5.56089454e+16
5.54295539e+16
4.47474913e+15
6.1635576e+15
7.73687638e+15
9.25282197e+15
1.07329314e+16
1.21860152e+16
1.36154474e+16
1.50221264e+16
1.64058303e+16
1.77658726e+16
1.91014265e+16
2.04116826e+16
2.1695921e+16
2.29535384e+16
2.41840523e+16
2.53870941e+16
2.65623974e+16
2.77097841e+16
2.88291522e+16
2.99204636e+16
3.09837337e+16
3.20190233e+16
3.30264311e+16
3.40060884e+16
3.49581544e+16
3.58828127e+16
3.67802693e+16
3.76507504e+16
3.84945009e+16
3.93117844e+16
4.01028822e+16
4.08680936e+16
4.16077358e+16
4.23221445e+16
4.30116739e+16
4.36766977e+16
4.43176093e+16
4.49348226e+16
4.55287723e+16
4.60999146e+16
4.66487278e+16
4.71757123e+16
4.76813914e+16
4.8166311e+16
4.86310398e+16
4.90761695e+16
4.9502314e+16
4.99101095e+16
5.03002129e+16
5.06733018e+16
5.10300724e+16
5.13712381e+16
5.16975275e+16
5.20096816e+16
5.23084508e+16
5.25938596e+16
5.28701809e+16
5.31380195e+16
5.33979939e+16
5.36507289e+16
5.38968478e+16
5.4136966e+16
5.43716844e+16
5.46015822e+16
5.48272103e+16
5.50490837e+16
5.52676738e+16
5.54833996e+16
5.56966196e+16
5.59076219e+16
5.61166141e+16
5.63237131e+16
5.65289338e+16
5.67321774e+16
5.69332195e+16
5.71316969e+16
5.73270954e+16
5.75187365e+16
5.77057642e+16
5.78871325e+16
5.80615932e+16
5.82276847e+16
5.8383723e+16
5.85277947e+16
5.8657754e+16
5.87712245e+16
5.88656087e+16
5.89381079e+16
5.89857557e+16
5.90054729e+16
5.8994151e+16
5.89487803e+16
5.88666422e+16
5.87456067e+16
5.8584602e+16
5.83843927e+16
5.81489514e+16
5.78881005e+16
5.76232178e+16
5.74018124e+16
4.69957145e+15
6.4797842e+15
8.13218438e+15
9.72378647e+15
1.12778617e+16
1.28034091e+16
1.43036269e+16
1.5779204e+16
1.72297664e+16
1.86545474e+16
2.00527016e+16
2.14234479e+16
2.27661257e+16
2.40802106e+16
2.53653086e+16
2.66211428e+16
2.78475366e+16
2.90443974e+16
3.02117018e+16
3.13494829e+16
3.24578194e+16
3.35368274e+16
3.45866535e+16
3.56074699e+16
3.65994702e+16
3.75628669e+16
3.84978895e+16
3.94047834e+16
4.02838091e+16
4.11352423e+16
4.19593738e+16
4.27565101e+16
4.35269739e+16
4.42711048e+16
4.49892602e+16
4.56818161e+16
4.63491678e+16
4.69917308e+16
4.76099418e+16
4.82042593e+16
4.87751639e+16
4.93231596e+16
4.98487737e+16
5.03525572e+16
5.08350852e+16
5.12969567e+16
5.17387948e+16
5.21612455e+16
5.2564978e+16
5.29506833e+16
5.33190727e+16
5.36708767e+16
5.40068428e+16
5.43277327e+16
5.46343199e+16
5.49262881e+16