/*--------------------------------*- C++ -*----------------------------------*\
| =========                 |                                                 |
| \\      /  F ield         | OpenFOAM Extend Project: Open source CFD        |
|  \\    /   O peration     | Version:  1.6-ext                               |
|   \\  /    A nd           | Web:      www.extend-project.de                 |
|    \\/     M anipulation  |                                                 |
\*---------------------------------------------------------------------------*/
FoamFile
{
    version     2.0;
    format      ascii;
    class       volVector6Field;
    location    "4000";
    object      flu;
}
// * * * * * * * * * * * * * * * * * * * * * * * * * * * * * * * * * * * * * //

dimensions      [0 -2 -1 0 0 0 0];

internalField   nonuniform 
40000
(
(1.6922049e+16 4.62277243e+16 4.82796101e+16 3.90040355e+16 3.02342941e+16 8.24423622e+15)
(1.86099663e+16 5.29327002e+16 5.90565424e+16 4.60791872e+16 3.58750365e+16 9.90265351e+15)
(2.03455278e+16 5.96995324e+16 6.98184698e+16 5.32361593e+16 4.15616755e+16 1.15710358e+16)
(2.21272176e+16 6.65297981e+16 8.05739547e+16 6.04712823e+16 4.7294255e+16 1.32495757e+16)
(2.39534346e+16 7.3424651e+16 9.13303807e+16 6.7781123e+16 5.30726999e+16 1.49384352e+16)
(2.58225429e+16 8.03849013e+16 1.02094232e+17 7.51624905e+16 5.88968314e+16 1.66377487e+16)
(2.77329025e+16 8.74110677e+16 1.12871261e+17 8.26124302e+16 6.47663788e+16 1.83476243e+16)
(2.96828879e+16 9.4503414e+16 1.23666594e+17 9.01282029e+16 7.06809833e+16 2.00681432e+16)
(3.16709002e+16 1.01661977e+17 1.344848e+17 9.77072691e+16 7.66402053e+16 2.17993597e+16)
(3.36953764e+16 1.0888659e+17 1.45329958e+17 1.05347273e+17 8.26435339e+16 2.3541303e+16)
(3.57547943e+16 1.16176908e+17 1.5620569e+17 1.13046026e+17 8.86903928e+16 2.52939773e+16)
(3.78476762e+16 1.23532419e+17 1.67115204e+17 1.20801487e+17 9.47801462e+16 2.70573626e+16)
(3.99725906e+16 1.30952464e+17 1.78061317e+17 1.2861175e+17 1.00912104e+17 2.88314154e+16)
(4.21281526e+16 1.38436245e+17 1.89046479e+17 1.36475025e+17 1.07085527e+17 3.06160693e+16)
(4.43130238e+16 1.45982839e+17 2.00072797e+17 1.44389622e+17 1.13299628e+17 3.24112357e+16)
(4.65259116e+16 1.5359121e+17 2.11142046e+17 1.52353935e+17 1.19553577e+17 3.42168044e+16)
(4.87655671e+16 1.61260211e+17 2.22255692e+17 1.60366433e+17 1.25846506e+17 3.60326441e+16)
(5.10307842e+16 1.68988598e+17 2.334149e+17 1.6842564e+17 1.32177504e+17 3.78586033e+16)
(5.33203964e+16 1.76775033e+17 2.44620551e+17 1.76530125e+17 1.38545626e+17 3.96945102e+16)
(5.56332757e+16 1.84618094e+17 2.55873254e+17 1.8467849e+17 1.44949887e+17 4.1540174e+16)
(5.79683291e+16 1.92516273e+17 2.67173354e+17 1.92869358e+17 1.5138927e+17 4.33953845e+16)
(6.03244966e+16 2.00467987e+17 2.78520947e+17 2.01101362e+17 1.57862719e+17 4.52599133e+16)
(6.27007485e+16 2.08471581e+17 2.89915885e+17 2.09373135e+17 1.64369143e+17 4.71335136e+16)
(6.50960825e+16 2.16525329e+17 3.0135779e+17 2.17683303e+17 1.70907416e+17 4.90159209e+16)
(6.75095215e+16 2.24627436e+17 3.1284606e+17 2.26030473e+17 1.77476373e+17 5.09068527e+16)
(6.99401105e+16 2.32776046e+17 3.24379875e+17 2.34413225e+17 1.84074811e+17 5.28060095e+16)
(7.23869142e+16 2.40969238e+17 3.3595821e+17 2.42830108e+17 1.9070149e+17 5.47130744e+16)
(7.48490144e+16 2.49205029e+17 3.4757984e+17 2.51279631e+17 1.97355127e+17 5.66277134e+16)
(7.73255075e+16 2.57481378e+17 3.59243345e+17 2.59760256e+17 2.04034398e+17 5.85495756e+16)
(7.98155019e+16 2.65796183e+17 3.70947116e+17 2.68270395e+17 2.10737936e+17 6.0478293e+16)
(8.23181158e+16 2.74147285e+17 3.82689367e+17 2.768084e+17 2.17464329e+17 6.24134806e+16)
(8.48324747e+16 2.82532465e+17 3.94468132e+17 2.85372564e+17 2.24212117e+17 6.43547364e+16)
(8.73577093e+16 2.90949446e+17 4.06281275e+17 2.93961111e+17 2.30979792e+17 6.63016413e+16)
(8.98929532e+16 2.99395893e+17 4.18126495e+17 3.02572199e+17 2.37765797e+17 6.82537589e+16)
(9.24373407e+16 3.07869408e+17 4.30001328e+17 3.11203906e+17 2.4456852e+17 7.02106354e+16)
(9.49900049e+16 3.16367536e+17 4.4190315e+17 3.19854239e+17 2.51386297e+17 7.21717993e+16)
(9.75500757e+16 3.24887761e+17 4.53829183e+17 3.28521119e+17 2.58217408e+17 7.41367613e+16)
(1.00116678e+17 3.33427501e+17 4.65776498e+17 3.37202388e+17 2.65060072e+17 7.61050137e+16)
(1.02688929e+17 3.41984113e+17 4.77742016e+17 3.45895801e+17 2.71912452e+17 7.80760309e+16)
(1.05265938e+17 3.50554887e+17 4.89722508e+17 3.54599023e+17 2.78772647e+17 8.00492679e+16)
(1.07846804e+17 3.59137048e+17 5.01714603e+17 3.6330963e+17 2.85638691e+17 8.20241611e+16)
(1.10430613e+17 3.67727749e+17 5.13714785e+17 3.72025107e+17 2.92508556e+17 8.40001271e+16)
(1.13016438e+17 3.76324074e+17 5.25719392e+17 3.80742841e+17 2.99380142e+17 8.59765629e+16)
(1.15603337e+17 3.84923034e+17 5.37724625e+17 3.89460126e+17 3.06251284e+17 8.7952845e+16)
(1.1819035e+17 3.93521564e+17 5.49726539e+17 3.98174156e+17 3.13119742e+17 8.99283294e+16)
(1.207765e+17 4.02116523e+17 5.6172105e+17 4.06882027e+17 3.19983204e+17 9.19023507e+16)
(1.2336079e+17 4.1070469e+17 5.73703931e+17 4.15580731e+17 3.26839286e+17 9.38742223e+16)
(1.25942204e+17 4.19282761e+17 5.85670814e+17 4.24267159e+17 3.33685522e+17 9.58432354e+16)
(1.28519701e+17 4.2784735e+17 5.97617187e+17 4.32938097e+17 3.40519372e+17 9.78086586e+16)
(1.31092218e+17 4.36394983e+17 6.09538397e+17 4.41590225e+17 3.47338215e+17 9.97697379e+16)
(1.33658669e+17 4.44922097e+17 6.21429647e+17 4.50220116e+17 3.54139346e+17 1.01725696e+17)
(1.36217941e+17 4.53425041e+17 6.33285993e+17 4.58824234e+17 3.6091998e+17 1.03675731e+17)
(1.38768895e+17 4.61900067e+17 6.45102349e+17 4.67398934e+17 3.67677248e+17 1.05619018e+17)
(1.41310365e+17 4.70343337e+17 6.56873486e+17 4.75940463e+17 3.74408193e+17 1.07554708e+17)
(1.43841158e+17 4.78750923e+17 6.68594046e+17 4.84444966e+17 3.81109786e+17 1.09481931e+17)
(1.46360048e+17 4.87118783e+17 6.80258499e+17 4.92908464e+17 3.87778895e+17 1.11399785e+17)
(1.48865778e+17 4.95442761e+17 6.91861142e+17 5.01326849e+17 3.94412293e+17 1.13307345e+17)
(1.51357052e+17 5.03718582e+17 7.03396093e+17 5.09695883e+17 4.01006647e+17 1.15203653e+17)
(1.53832543e+17 5.11941849e+17 7.14857296e+17 5.18011196e+17 4.07558524e+17 1.17087722e+17)
(1.56290886e+17 5.20108043e+17 7.26238511e+17 5.26268286e+17 4.14064384e+17 1.18958536e+17)
(1.58730678e+17 5.28212519e+17 7.37533317e+17 5.34462515e+17 4.20520583e+17 1.20815049e+17)
(1.61150478e+17 5.36250504e+17 7.4873511e+17 5.4258911e+17 4.26923369e+17 1.22656182e+17)
(1.63548806e+17 5.44217092e+17 7.59837097e+17 5.50643159e+17 4.3326888e+17 1.24480826e+17)
(1.65924142e+17 5.52107243e+17 7.70832293e+17 5.58619608e+17 4.39553143e+17 1.26287841e+17)
(1.68274925e+17 5.59915783e+17 7.81713518e+17 5.66513259e+17 4.45772072e+17 1.28076053e+17)
(1.70599551e+17 5.67637392e+17 7.92473394e+17 5.7431877e+17 4.51921466e+17 1.29844255e+17)
(1.72896374e+17 5.75266609e+17 8.03104338e+17 5.82030647e+17 4.57997005e+17 1.31591207e+17)
(1.75163701e+17 5.82797825e+17 8.13598559e+17 5.89643246e+17 4.63994251e+17 1.33315634e+17)
(1.77399798e+17 5.90225281e+17 8.23948054e+17 5.97150766e+17 4.69908641e+17 1.35016225e+17)
(1.79602881e+17 5.97543061e+17 8.34144603e+17 6.04547249e+17 4.75735488e+17 1.36691636e+17)
(1.8177112e+17 6.04745094e+17 8.44179763e+17 6.11826574e+17 4.81469979e+17 1.38340482e+17)
(1.83902637e+17 6.11825146e+17 8.54044863e+17 6.18982455e+17 4.8710717e+17 1.39961345e+17)
(1.85995504e+17 6.18776816e+17 8.63731001e+17 6.2600844e+17 4.92641985e+17 1.41552766e+17)
(1.88047743e+17 6.25593536e+17 8.73229037e+17 6.32897902e+17 4.98069212e+17 1.43113248e+17)
(1.90057322e+17 6.32268566e+17 8.82529588e+17 6.3964404e+17 5.03383501e+17 1.44641255e+17)
(1.9202216e+17 6.38794987e+17 8.91623023e+17 6.46239873e+17 5.08579363e+17 1.4613521e+17)
(1.93940118e+17 6.45165701e+17 9.00499459e+17 6.5267824e+17 5.13651164e+17 1.47593496e+17)
(1.95809006e+17 6.51373426e+17 9.09148754e+17 6.5895179e+17 5.18593125e+17 1.49014451e+17)
(1.97626575e+17 6.57410692e+17 9.17560503e+17 6.65052986e+17 5.23399317e+17 1.50396373e+17)
(1.99390519e+17 6.63269838e+17 9.2572403e+17 6.70974094e+17 5.28063658e+17 1.51737516e+17)
(2.01098476e+17 6.68943008e+17 9.3362839e+17 6.76707186e+17 5.32579914e+17 1.53036087e+17)
(2.02748021e+17 6.74422147e+17 9.41262356e+17 6.82244133e+17 5.36941691e+17 1.5429025e+17)
(2.04336672e+17 6.79698998e+17 9.4861442e+17 6.87576601e+17 5.41142434e+17 1.55498123e+17)
(2.05861883e+17 6.847651e+17 9.5567279e+17 6.92696051e+17 5.45175426e+17 1.56657774e+17)
(2.07321047e+17 6.89611785e+17 9.62425382e+17 6.97593733e+17 5.49033786e+17 1.57767225e+17)
(2.08711495e+17 6.94230176e+17 9.68859823e+17 7.02260689e+17 5.52710461e+17 1.58824451e+17)
(2.10030491e+17 6.98611184e+17 9.74963447e+17 7.06687746e+17 5.56198231e+17 1.59827375e+17)
(2.11275241e+17 7.02745515e+17 9.807233e+17 7.10865518e+17 5.59489707e+17 1.60773871e+17)
(2.12442881e+17 7.06623662e+17 9.86126139e+17 7.1478441e+17 5.6257733e+17 1.61661767e+17)
(2.13530491e+17 7.10235918e+17 9.91158441e+17 7.18434618e+17 5.6545337e+17 1.62488837e+17)
(2.14535085e+17 7.13572376e+17 9.95806413e+17 7.21806135e+17 5.68109938e+17 1.63252812e+17)
(2.15453621e+17 7.16622941e+17 1.00005601e+18 7.24888763e+17 5.70538984e+17 1.63951373e+17)
(2.16283002e+17 7.19377343e+17 1.00389293e+18 7.2767212e+17 5.72732312e+17 1.64582161e+17)
(2.17020079e+17 7.2182515e+17 1.00730268e+18 7.30145661e+17 5.74681589e+17 1.65142776e+17)
(2.17661662e+17 7.23955789e+17 1.01027057e+18 7.32298692e+17 5.76378364e+17 1.65630783e+17)
(2.18204519e+17 7.25758566e+17 1.01278174e+18 7.34120398e+17 5.77814084e+17 1.66043718e+17)
(2.18645391e+17 7.27222685e+17 1.01482118e+18 7.35599864e+17 5.78980117e+17 1.66379094e+17)
(2.18980996e+17 7.28337262e+17 1.01637377e+18 7.36726092e+17 5.79867771e+17 1.66634407e+17)
(2.19208036e+17 7.29091342e+17 1.01742426e+18 7.37488026e+17 5.8046831e+17 1.66807141e+17)
(2.19323204e+17 7.29473897e+17 1.01795725e+18 7.3787455e+17 5.80772961e+17 1.6689477e+17)
(1.86101804e+16 5.29334766e+16 5.90575423e+16 4.60798173e+16 3.58754636e+16 9.90276394e+15)
(2.04669473e+16 6.06116804e+16 7.22426898e+16 5.44387565e+16 4.25686812e+16 1.18948285e+16)
(2.23763717e+16 6.83610313e+16 8.54106533e+16 6.28944622e+16 4.93163406e+16 1.38988631e+16)
(2.43366856e+16 7.61832045e+16 9.85713718e+16 7.14425331e+16 5.61184893e+16 1.59150951e+16)
(2.63460709e+16 8.40794493e+16 1.11733599e+17 8.00788848e+16 6.29750416e+16 1.79437187e+16)
(2.84026931e+16 9.2050651e+16 1.24905111e+17 8.87997342e+16 6.98857889e+16 1.99848956e+16)
(3.05047247e+16 1.00097375e+17 1.38092847e+17 9.76015801e+16 7.68504107e+16 2.20387553e+16)
(3.26503611e+16 1.08219901e+17 1.51303013e+17 1.0648118e+17 8.38684808e+16 2.4105395e+16)
(3.48378324e+16 1.16418256e+17 1.64541157e+17 1.1543553e+17 9.09394786e+16 2.61848802e+16)
(3.7065411e+16 1.2469224e+17 1.77812241e+17 1.24461846e+17 9.80627984e+16 2.82772459e+16)
(3.93314171e+16 1.33041449e+17 1.91120679e+17 1.33557541e+17 1.05237757e+17 3.03824973e+16)
(4.16342213e+16 1.41465292e+17 2.04470383e+17 1.42720205e+17 1.12463601e+17 3.25006106e+16)
(4.39722461e+16 1.4996301e+17 2.17864793e+17 1.51947586e+17 1.19739511e+17 3.46315336e+16)
(4.63439666e+16 1.58533688e+17 2.31306903e+17 1.6123757e+17 1.2706461e+17 3.67751867e+16)
(4.87479095e+16 1.67176267e+17 2.44799286e+17 1.7058816e+17 1.34437967e+17 3.89314637e+16)
(5.11826521e+16 1.75889559e+17 2.58344117e+17 1.79997463e+17 1.41858595e+17 4.11002322e+16)
(5.36468208e+16 1.8467225e+17 2.71943187e+17 1.89463668e+17 1.49325465e+17 4.32813348e+16)
(5.61390887e+16 1.93522915e+17 2.85597925e+17 1.98985034e+17 1.56837496e+17 4.54745893e+16)
(5.86581733e+16 2.02440024e+17 2.99309412e+17 2.08559871e+17 1.64393566e+17 4.76797898e+16)
(6.1202834e+16 2.11421945e+17 3.13078392e+17 2.18186529e+17 1.7199251e+17 4.9896707e+16)
(6.37718691e+16 2.20466955e+17 3.26905293e+17 2.2786338e+17 1.79633117e+17 5.21250885e+16)
(6.63641134e+16 2.29573241e+17 3.40790234e+17 2.37588811e+17 1.87314137e+17 5.436466e+16)
(6.89784347e+16 2.38738908e+17 3.54733036e+17 2.47361209e+17 1.95034274e+17 5.6615125e+16)
(7.16137313e+16 2.47961978e+17 3.68733239e+17 2.57178948e+17 2.02792193e+17 5.88761658e+16)
(7.4268929e+16 2.572404e+17 3.82790109e+17 2.67040384e+17 2.1058651e+17 6.11474432e+16)
(7.69429779e+16 2.66572046e+17 3.96902646e+17 2.76943841e+17 2.18415799e+17 6.34285973e+16)
(7.96348498e+16 2.75954717e+17 4.11069598e+17 2.86887603e+17 2.26278586e+17 6.57192473e+16)
(8.23435354e+16 2.85386143e+17 4.25289467e+17 2.96869909e+17 2.3417335e+17 6.80189922e+16)
(8.5068041e+16 2.94863988e+17 4.39560517e+17 3.06888942e+17 2.4209852e+17 7.032741e+16)
(8.78073867e+16 3.04385844e+17 4.53880783e+17 3.16942825e+17 2.50052473e+17 7.26440589e+16)
(9.05606027e+16 3.13949239e+17 4.68248078e+17 3.27029611e+17 2.58033533e+17 7.49684761e+16)
(9.33267276e+16 3.23551632e+17 4.82659999e+17 3.37147283e+17 2.66039966e+17 7.73001787e+16)
(9.61048055e+16 3.33190416e+17 4.97113934e+17 3.47293744e+17 2.74069985e+17 7.96386631e+16)
(9.88938835e+16 3.42862915e+17 5.11607067e+17 3.57466812e+17 2.82121738e+17 8.19834049e+16)
(1.0169301e+17 3.52566387e+17 5.26136383e+17 3.67664222e+17 2.90193315e+17 8.43338587e+16)
(1.04501231e+17 3.62298017e+17 5.40698673e+17 3.77883613e+17 2.98282739e+17 8.6689458e+16)
(1.0731759e+17 3.72054923e+17 5.55290538e+17 3.88122533e+17 3.06387967e+17 8.90496148e+16)
(1.10141125e+17 3.81834151e+17 5.69908393e+17 3.98378427e+17 3.14506888e+17 9.14137191e+16)
(1.12970864e+17 3.91632672e+17 5.84548469e+17 4.08648644e+17 3.2263732e+17 9.37811392e+16)
(1.15805828e+17 4.01447383e+17 5.99206817e+17 4.18930423e+17 3.30777005e+17 9.61512202e+16)
(1.18645026e+17 4.11275104e+17 6.13879311e+17 4.29220902e+17 3.38923612e+17 9.85232849e+16)
(1.21487452e+17 4.21112577e+17 6.28561646e+17 4.39517105e+17 3.47074731e+17 1.00896632e+17)
(1.24332087e+17 4.30956459e+17 6.43249344e+17 4.49815946e+17 3.55227872e+17 1.03270538e+17)
(1.27177893e+17 4.40803329e+17 6.57937752e+17 4.60114227e+17 3.63380463e+17 1.05644252e+17)
(1.30023817e+17 4.50649676e+17 6.72622044e+17 4.70408631e+17 3.71529846e+17 1.08017001e+17)
(1.32868782e+17 4.60491902e+17 6.87297221e+17 4.80695725e+17 3.79673277e+17 1.10387985e+17)
(1.35711692e+17 4.70326318e+17 7.01958109e+17 4.90971955e+17 3.87807925e+17 1.1275638e+17)
(1.38551428e+17 4.8014914e+17 7.16599363e+17 5.01233648e+17 3.95930865e+17 1.15121333e+17)
(1.41386846e+17 4.8995649e+17 7.31215462e+17 5.11477004e+17 4.0403908e+17 1.17481967e+17)
(1.44216778e+17 4.99744388e+17 7.45800711e+17 5.21698101e+17 4.12129461e+17 1.19837374e+17)
(1.47040026e+17 5.09508756e+17 7.60349237e+17 5.31892889e+17 4.20198797e+17 1.22186621e+17)
(1.49855368e+17 5.19245408e+17 7.74854993e+17 5.42057189e+17 4.28243782e+17 1.24528745e+17)
(1.5266155e+17 5.28950055e+17 7.89311752e+17 5.52186693e+17 4.36261011e+17 1.26862755e+17)
(1.55457288e+17 5.38618299e+17 8.03713112e+17 5.62276965e+17 4.44246974e+17 1.29187629e+17)
(1.58241272e+17 5.4824564e+17 8.18052514e+17 5.72323449e+17 4.52198074e+17 1.31502321e+17)
(1.61012151e+17 5.57827451e+17 8.32323193e+17 5.82321444e+17 4.60110595e+17 1.33805751e+17)
(1.63768543e+17 5.67358971e+17 8.46518168e+17 5.92266094e+17 4.67980707e+17 1.36096804e+17)
(1.66509023e+17 5.76835305e+17 8.60630245e+17 6.02152394e+17 4.75804456e+17 1.38374331e+17)
(1.69232131e+17 5.86251421e+17 8.74652012e+17 6.11975181e+17 4.83577768e+17 1.40637147e+17)
(1.71936366e+17 5.95602143e+17 8.8857584e+17 6.21729139e+17 4.91296445e+17 1.42884032e+17)
(1.74620184e+17 6.04882153e+17 9.02393874e+17 6.3140879e+17 4.98956164e+17 1.45113727e+17)
(1.77282e+17 6.14085988e+17 9.16098037e+17 6.41008497e+17 5.06552473e+17 1.4732494e+17)
(1.79920188e+17 6.23208031e+17 9.2968002e+17 6.50522456e+17 5.14080793e+17 1.49516339e+17)
(1.82533076e+17 6.32242513e+17 9.4313128e+17 6.59944702e+17 5.21536411e+17 1.51686553e+17)
(1.85118945e+17 6.41183509e+17 9.56443036e+17 6.69269094e+17 5.2891448e+17 1.53834173e+17)
(1.87676033e+17 6.5002493e+17 9.69606265e+17 6.78489324e+17 5.36210017e+17 1.55957751e+17)
(1.90202528e+17 6.58760526e+17 9.82611693e+17 6.87598905e+17 5.43417899e+17 1.58055797e+17)
(1.92696571e+17 6.67383875e+17 9.95449792e+17 6.9659117e+17 5.50532861e+17 1.60126781e+17)
(1.95156252e+17 6.75888383e+17 1.00811077e+18 7.05459269e+17 5.57549492e+17 1.6216913e+17)
(1.97579611e+17 6.84267281e+17 1.02058459e+18 7.14196167e+17 5.64462234e+17 1.64181227e+17)
(1.99964635e+17 6.92513616e+17 1.03286091e+18 7.22794636e+17 5.71265377e+17 1.66161412e+17)
(2.02309259e+17 7.00620254e+17 1.04492913e+18 7.31247254e+17 5.77953059e+17 1.68107981e+17)
(2.04611361e+17 7.08579869e+17 1.05677836e+18 7.395464e+17 5.84519258e+17 1.70019184e+17)
(2.06868768e+17 7.16384942e+17 1.06839744e+18 7.47684249e+17 5.90957795e+17 1.71893224e+17)
(2.09079245e+17 7.24027756e+17 1.07977488e+18 7.55652772e+17 5.97262324e+17 1.73728255e+17)
(2.11240502e+17 7.31500393e+17 1.0908989e+18 7.63443726e+17 6.03426336e+17 1.75522385e+17)
(2.13350188e+17 7.38794728e+17 1.10175743e+18 7.71048653e+17 6.09443149e+17 1.77273672e+17)
(2.15405895e+17 7.45902425e+17 1.11233806e+18 7.78458875e+17 6.15305909e+17 1.78980122e+17)
(2.17405148e+17 7.52814935e+17 1.12262806e+18 7.85665491e+17 6.21007585e+17 1.80639691e+17)
(2.19345414e+17 7.59523488e+17 1.13261438e+18 7.9265937e+17 6.26540966e+17 1.82250283e+17)
(2.21224092e+17 7.6601909e+17 1.14228363e+18 7.99431151e+17 6.31898656e+17 1.83809746e+17)
(2.23038519e+17 7.72292522e+17 1.1516221e+18 8.05971233e+17 6.37073073e+17 1.85315875e+17)
(2.24785963e+17 7.78334332e+17 1.16061569e+18 8.12269778e+17 6.42056446e+17 1.86766411e+17)
(2.26463625e+17 7.84134836e+17 1.16925e+18 8.18316701e+17 6.46840807e+17 1.88159035e+17)
(2.28068638e+17 7.89684109e+17 1.17751024e+18 8.24101672e+17 6.51417994e+17 1.89491373e+17)
(2.29598065e+17 7.94971991e+17 1.18538129e+18 8.2961411e+17 6.55779644e+17 1.90760991e+17)
(2.31048901e+17 7.99988079e+17 1.19284764e+18 8.34843185e+17 6.59917195e+17 1.91965398e+17)
(2.32418069e+17 8.04721729e+17 1.19989347e+18 8.39777813e+17 6.63821881e+17 1.93102042e+17)
(2.33702422e+17 8.09162061e+17 1.20650257e+18 8.44406661e+17 6.67484736e+17 1.94168313e+17)
(2.34898747e+17 8.1329796e+17 1.2126584e+18 8.48718153e+17 6.70896595e+17 1.95161539e+17)
(2.3600376e+17 8.17118085e+17 1.2183441e+18 8.52700469e+17 6.74048097e+17 1.96078996e+17)
(2.37014114e+17 8.20610876e+17 1.22354247e+18 8.56341563e+17 6.76929693e+17 1.96917899e+17)
(2.37926404e+17 8.23764575e+17 1.22823604e+18 8.59629173e+17 6.7953166e+17 1.97675415e+17)
(2.38737166e+17 8.26567236e+17 1.23240707e+18 8.62550842e+17 6.81844112e+17 1.98348661e+17)
(2.39442887e+17 8.29006755e+17 1.23603757e+18 8.6509394e+17 6.83857021e+17 1.98934713e+17)
(2.40040016e+17 8.31070884e+17 1.23910939e+18 8.67245689e+17 6.8556024e+17 1.99430611e+17)
(2.40524965e+17 8.32747263e+17 1.24160417e+18 8.68993196e+17 6.86943529e+17 1.99833369e+17)
(2.40894124e+17 8.34023433e+17 1.24350342e+18 8.7032347e+17 6.87996573e+17 2.00139978e+17)
(2.41143866e+17 8.34886851e+17 1.24478847e+18 8.71223455e+17 6.88709011e+17 2.00347419e+17)
(2.41270551e+17 8.35324889e+17 1.24544048e+18 8.7168002e+17 6.89070435e+17 2.00452657e+17)
(2.03461986e+16 5.9702003e+16 6.98217322e+16 5.32381853e+16 4.15630511e+16 1.15713931e+16)
(2.23768523e+16 6.83628583e+16 8.54131989e+16 6.28959961e+16 4.9317386e+16 1.38991374e+16)
(2.4465512e+16 7.71044673e+16 1.00986165e+17 7.26657413e+16 5.71347391e+16 1.62408616e+16)
(2.66100973e+16 8.59285341e+16 1.16551654e+17 8.25422536e+16 6.50151667e+16 1.85968276e+16)
(2.8808526e+16 9.48363573e+16 1.32119589e+17 9.25207724e+16 7.29585765e+16 2.09672625e+16)
(3.10587279e+16 1.03828856e+17 1.47698887e+17 1.02596897e+17 8.0964729e+16 2.33523544e+16)
(3.33586598e+16 1.1290661e+17 1.63297569e+17 1.12766562e+17 8.90332527e+16 2.5752254e+16)
(3.57063172e+16 1.22069896e+17 1.78922851e+17 1.23026009e+17 9.71636556e+16 2.81670746e+16)
(3.80997421e+16 1.31318716e+17 1.94581217e+17 1.33371763e+17 1.05355336e+17 3.05968931e+16)
(4.05370296e+16 1.40652826e+17 2.10278476e+17 1.43800602e+17 1.13607595e+17 3.30417507e+16)
(4.30163309e+16 1.50071754e+17 2.26019814e+17 1.54309536e+17 1.2191964e+17 3.55016538e+16)
(4.55358559e+16 1.59574825e+17 2.41809831e+17 1.64895782e+17 1.30290602e+17 3.79765749e+16)
(4.80938739e+16 1.69161172e+17 2.57652578e+17 1.75556737e+17 1.38719532e+17 4.04664535e+16)
(5.06887132e+16 1.7882976e+17 2.73551589e+17 1.86289961e+17 1.47205416e+17 4.2971197e+16)
(5.33187601e+16 1.88579392e+17 2.89509902e+17 1.97093149e+17 1.55747174e+17 4.54906815e+16)
(5.59824573e+16 1.98408722e+17 3.05530085e+17 2.07964114e+17 1.64343668e+17 4.80247528e+16)
(5.8678302e+16 2.08316271e+17 3.21614258e+17 2.18900769e+17 1.72993702e+17 5.05732274e+16)
(6.14048429e+16 2.1830043e+17 3.37764114e+17 2.29901101e+17 1.81696029e+17 5.31358927e+16)
(6.41606779e+16 2.28359473e+17 3.53980933e+17 2.40963162e+17 1.90449348e+17 5.57125083e+16)
(6.69444508e+16 2.38491559e+17 3.70265601e+17 2.52085047e+17 1.99252309e+17 5.83028066e+16)
(6.97548485e+16 2.48694747e+17 3.86618627e+17 2.63264877e+17 2.08103511e+17 6.0906493e+16)
(7.25905975e+16 2.58966991e+17 4.03040155e+17 2.7450079e+17 2.17001506e+17 6.3523247e+16)
(7.54504609e+16 2.69306155e+17 4.19529982e+17 2.85790922e+17 2.25944795e+17 6.61527225e+16)
(7.8333235e+16 2.79710011e+17 4.36087566e+17 2.97133399e+17 2.34931827e+17 6.87945482e+16)
(8.12377461e+16 2.90176244e+17 4.52712044e+17 3.08526319e+17 2.43961003e+17 7.14483279e+16)
(8.41628472e+16 3.00702455e+17 4.69402238e+17 3.19967747e+17 2.53030668e+17 7.4113641e+16)
(8.71074149e+16 3.11286165e+17 4.86156669e+17 3.31455703e+17 2.62139117e+17 7.67900426e+16)
(9.00703463e+16 3.21924816e+17 5.02973571e+17 3.42988151e+17 2.71284586e+17 7.94770638e+16)
(9.30505559e+16 3.3261577e+17 5.19850894e+17 3.54562992e+17 2.80465253e+17 8.21742118e+16)
(9.60469727e+16 3.43356315e+17 5.36786316e+17 3.66178055e+17 2.89679239e+17 8.48809698e+16)
(9.9058537e+16 3.5414366e+17 5.53777252e+17 3.77831093e+17 2.989246e+17 8.75967969e+16)
(1.02084198e+17 3.6497494e+17 5.70820863e+17 3.89519772e+17 3.08199328e+17 9.03211286e+16)
(1.05122911e+17 3.75847214e+17 5.87914059e+17 4.01241668e+17 3.17501349e+17 9.30533759e+16)
(1.08173634e+17 3.86757463e+17 6.05053512e+17 4.12994262e+17 3.26828519e+17 9.57929258e+16)
(1.11235327e+17 3.97702593e+17 6.22235655e+17 4.24774931e+17 3.36178621e+17 9.85391406e+16)
(1.14306947e+17 4.08679431e+17 6.39456693e+17 4.36580949e+17 3.45549365e+17 1.01291358e+17)
(1.17387449e+17 4.19684722e+17 6.56712604e+17 4.48409478e+17 3.54938381e+17 1.04048889e+17)
(1.20475778e+17 4.30715133e+17 6.73999147e+17 4.60257566e+17 3.64343222e+17 1.06811023e+17)
(1.23570875e+17 4.41767246e+17 6.91311863e+17 4.72122145e+17 3.73761356e+17 1.09577018e+17)
(1.26671667e+17 4.52837561e+17 7.08646079e+17 4.84000025e+17 3.83190168e+17 1.12346111e+17)
(1.2977707e+17 4.63922488e+17 7.2599691e+17 4.95887894e+17 3.92626954e+17 1.15117507e+17)
(1.32885985e+17 4.7501835e+17 7.43359265e+17 5.07782312e+17 4.02068918e+17 1.17890389e+17)
(1.35997296e+17 4.86121376e+17 7.60727841e+17 5.19679711e+17 4.11513174e+17 1.20663907e+17)
(1.39109868e+17 4.97227702e+17 7.78097133e+17 5.3157639e+17 4.20956738e+17 1.23437186e+17)
(1.42222548e+17 5.08333367e+17 7.95461428e+17 5.43468516e+17 4.3039653e+17 1.2620932e+17)
(1.4533416e+17 5.19434311e+17 8.12814808e+17 5.55352118e+17 4.39829368e+17 1.28979375e+17)
(1.48443503e+17 5.30526368e+17 8.30151153e+17 5.67223087e+17 4.49251967e+17 1.31746386e+17)
(1.51549354e+17 5.4160527e+17 8.47464134e+17 5.79077173e+17 4.58660937e+17 1.34509356e+17)
(1.54650461e+17 5.52666639e+17 8.64747216e+17 5.90909987e+17 4.68052782e+17 1.37267258e+17)
(1.57745545e+17 5.63705983e+17 8.8199366e+17 6.02716989e+17 4.77423893e+17 1.40019032e+17)
(1.60833297e+17 5.747187e+17 8.99196514e+17 6.14493499e+17 4.86770551e+17 1.42763585e+17)
(1.63912378e+17 5.85700066e+17 9.16348622e+17 6.26234685e+17 4.96088922e+17 1.45499793e+17)
(1.66981417e+17 5.96645239e+17 9.33442613e+17 6.37935566e+17 5.05375056e+17 1.48226495e+17)
(1.7003901e+17 6.07549253e+17 9.50470905e+17 6.49591009e+17 5.14624884e+17 1.50942497e+17)
(1.7308372e+17 6.18407031e+17 9.67425733e+17 6.61195746e+17 5.23834233e+17 1.53646574e+17)
(1.76114073e+17 6.29213346e+17 9.84299084e+17 6.72744337e+17 5.32998794e+17 1.56337463e+17)
(1.79128553e+17 6.3996283e+17 1.0010827e+18 6.84231171e+17 5.42114126e+17 1.5901386e+17)
(1.82125604e+17 6.50649959e+17 1.01776807e+18 6.95650465e+17 5.51175649e+17 1.61674423e+17)
(1.85103629e+17 6.61269057e+17 1.03434643e+18 7.06996254e+17 5.60178643e+17 1.64317766e+17)
(1.88060986e+17 6.71814289e+17 1.05080876e+18 7.18262397e+17 5.69118245e+17 1.66942464e+17)
(1.90995987e+17 6.82279659e+17 1.06714578e+18 7.29442568e+17 5.7798945e+17 1.69547049e+17)
(1.939069e+17 6.92659005e+17 1.08334793e+18 7.40530257e+17 5.86787103e+17 1.72130009e+17)
(1.96791946e+17 7.02945996e+17 1.09940541e+18 7.51518764e+17 5.95505901e+17 1.74689789e+17)
(1.99649296e+17 7.13134129e+17 1.1153081e+18 7.62401198e+17 6.04140388e+17 1.77224789e+17)
(2.02477074e+17 7.23216724e+17 1.13104564e+18 7.73170473e+17 6.12684953e+17 1.79733364e+17)
(2.05273352e+17 7.33186918e+17 1.14660736e+18 7.83819304e+17 6.21133827e+17 1.82213822e+17)
(2.08036149e+17 7.43037665e+17 1.16198231e+18 7.94340203e+17 6.29481081e+17 1.84664425e+17)
(2.10763434e+17 7.52761727e+17 1.17715922e+18 8.04725475e+17 6.37720618e+17 1.87083386e+17)
(2.13453119e+17 7.62351674e+17 1.19212654e+18 8.14967213e+17 6.45846179e+17 1.89468867e+17)
(2.16103061e+17 7.71799876e+17 1.20687239e+18 8.25057297e+17 6.53851329e+17 1.91818984e+17)
(2.18711061e+17 7.81098498e+17 1.22138457e+18 8.34987386e+17 6.61729461e+17 1.94131797e+17)
(2.21274861e+17 7.902395e+17 1.23565055e+18 8.44748913e+17 6.69473791e+17 1.96405319e+17)
(2.23792144e+17 7.99214626e+17 1.24965748e+18 8.54333085e+17 6.77077352e+17 1.98637505e+17)
(2.26260533e+17 8.08015405e+17 1.26339216e+18 8.63730873e+17 6.84532992e+17 2.0082626e+17)
(2.28677587e+17 8.16633141e+17 1.27684103e+18 8.7293301e+17 6.91833372e+17 2.0296943e+17)
(2.31040803e+17 8.25058913e+17 1.28999019e+18 8.81929986e+17 6.98970957e+17 2.05064806e+17)
(2.33347613e+17 8.33283566e+17 1.30282536e+18 8.90712043e+17 7.05938019e+17 2.07110122e+17)
(2.35595383e+17 8.41297708e+17 1.31533189e+18 8.99269167e+17 7.12726628e+17 2.09103052e+17)
(2.37781412e+17 8.49091707e+17 1.32749477e+18 9.0759109e+17 7.1932865e+17 2.11041211e+17)
(2.3990293e+17 8.56655681e+17 1.33929857e+18 9.15667276e+17 7.25735742e+17 2.12922153e+17)
(2.41957096e+17 8.63979499e+17 1.35072748e+18 9.23486926e+17 7.31939349e+17 2.14743367e+17)
(2.43940999e+17 8.71052772e+17 1.3617653e+18 9.31038963e+17 7.379307e+17 2.16502282e+17)
(2.45851654e+17 8.77864853e+17 1.37239541e+18 9.38312036e+17 7.43700803e+17 2.18196259e+17)
(2.47686003e+17 8.84404829e+17 1.38260077e+18 9.45294511e+17 7.49240442e+17 2.19822595e+17)
(2.49440914e+17 8.90661519e+17 1.39236393e+18 9.51974468e+17 7.54540174e+17 2.2137852e+17)
(2.51113178e+17 8.96623475e+17 1.40166703e+18 9.58339701e+17 7.59590325e+17 2.22861193e+17)
(2.52699508e+17 9.02278973e+17 1.41049176e+18 9.64377711e+17 7.64380986e+17 2.24267707e+17)
(2.54196543e+17 9.07616021e+17 1.41881943e+18 9.70075711e+17 7.68902018e+17 2.25595084e+17)
(2.55600844e+17 9.12622357e+17 1.42663088e+18 9.75420621e+17 7.73143043e+17 2.26840278e+17)
(2.56908898e+17 9.17285453e+17 1.43390659e+18 9.80399079e+17 7.77093455e+17 2.28000172e+17)
(2.58117115e+17 9.21592526e+17 1.44062662e+18 9.84997445e+17 7.8074242e+17 2.29071583e+17)
(2.59221838e+17 9.25530546e+17 1.44677067e+18 9.89201811e+17 7.84078885e+17 2.30051262e+17)
(2.60219341e+17 9.29086255e+17 1.45231809e+18 9.92998019e+17 7.8709159e+17 2.309359e+17)
(2.61105837e+17 9.32246187e+17 1.4572479e+18 9.96371685e+17 7.89769091e+17 2.31722129e+17)
(2.61877485e+17 9.34996689e+17 1.46153886e+18 9.99308222e+17 7.92099772e+17 2.32406534e+17)
(2.62530399e+17 9.37323955e+17 1.46516949e+18 1.00179287e+18 7.94071882e+17 2.32985658e+17)
(2.63060656e+17 9.39214046e+17 1.46811811e+18 1.00381074e+18 7.95673559e+17 2.33456012e+17)
(2.63464307e+17 9.40652915e+17 1.47036286e+18 1.00534684e+18 7.96892857e+17 2.33814082e+17)
(2.63737386e+17 9.41626423e+17 1.4718817e+18 1.00638607e+18 7.97717779e+17 2.3405634e+17)
(2.63875911e+17 9.42120328e+17 1.47265236e+18 1.00691328e+18 7.9813627e+17 2.34179242e+17)
(2.21286179e+16 6.65350289e+16 8.05810156e+16 6.04756099e+16 4.72971972e+16 1.3250343e+16)
(2.43379466e+16 7.61880816e+16 9.85783478e+16 7.14466714e+16 5.6121314e+16 1.59158397e+16)
(2.66109051e+16 8.59317422e+16 1.16556434e+17 8.25450221e+16 6.5017061e+16 1.85973307e+16)
(2.89450703e+16 9.57677212e+16 1.34527273e+17 9.37647174e+16 7.39845091e+16 2.12951141e+16)
(3.13380617e+16 1.05697323e+17 1.52501813e+17 1.05100291e+17 8.30235535e+16 2.40094471e+16)
(3.37875451e+16 1.1572147e+17 1.70489999e+17 1.16546707e+17 9.21339231e+16 2.67405443e+16)
(3.62912383e+16 1.25840735e+17 1.88500853e+17 1.28099321e+17 1.01315197e+17 2.94885775e+16)
(3.88469171e+16 1.36055373e+17 2.06542541e+17 1.3975385e+17 1.10566816e+17 3.22536762e+16)
(4.14524198e+16 1.46365346e+17 2.24622431e+17 1.51506332e+17 1.19888098e+17 3.50359287e+16)
(4.41056506e+16 1.56770351e+17 2.42747152e+17 1.63353104e+17 1.29278249e+17 3.78353824e+16)
(4.68045812e+16 1.67269843e+17 2.60922633e+17 1.75290766e+17 1.38736371e+17 4.06520451e+16)
(4.95472516e+16 1.77863053e+17 2.79154149e+17 1.87316154e+17 1.48261473e+17 4.34858858e+16)
(5.233177e+16 1.88549006e+17 2.97446353e+17 1.99426313e+17 1.57852481e+17 4.63368359e+16)
(5.51563114e+16 1.99326538e+17 3.15803307e+17 2.11618473e+17 1.67508241e+17 4.920479e+16)
(5.80191162e+16 2.10194309e+17 3.34228509e+17 2.23890017e+17 1.77227527e+17 5.20896068e+16)
(6.09184876e+16 2.2115082e+17 3.52724922e+17 2.36238466e+17 1.87009046e+17 5.49911106e+16)
(6.38527891e+16 2.32194416e+17 3.71294992e+17 2.4866145e+17 1.9685144e+17 5.79090917e+16)
(6.68204414e+16 2.43323306e+17 3.89940675e+17 2.61156687e+17 2.0675329e+17 6.08433075e+16)
(6.98199193e+16 2.54535565e+17 4.08663453e+17 2.73721967e+17 2.16713118e+17 6.37934833e+16)