/*--------------------------------*- C++ -*----------------------------------*\
| =========                 |                                                 |
| \\      /  F ield         | OpenFOAM Extend Project: Open source CFD        |
|  \\    /   O peration     | Version:  1.6-ext                               |
|   \\  /    A nd           | Web:      www.extend-project.de                 |
|    \\/     M anipulation  |                                                 |
\*---------------------------------------------------------------------------*/
FoamFile
{
    version     2.0;
    format      ascii;
    class       volVector6Field;
    location    "4000";
    object      flu_adj;
}
// * * * * * * * * * * * * * * * * * * * * * * * * * * * * * * * * * * * * * //

dimensions      [0 -2 -1 0 0 0 0];

internalField   nonuniform 
40000
(
(4.68610799e+16 2.75034677e+16 1.58544076e+16 2.19417161e+16 2.14335905e+16 2.08044077e+16)
(5.15123845e+16 3.15266648e+16 1.94064931e+16 2.59002119e+16 2.54158527e+16 2.49373636e+16)
(5.62745563e+16 3.56172465e+16 2.29652936e+16 2.98856776e+16 2.94154568e+16 2.90511711e+16)
(6.1145398e+16 3.97729061e+16 2.65324064e+16 3.38983949e+16 3.34336411e+16 3.31527692e+16)
(6.61224848e+16 4.39913107e+16 3.01091954e+16 3.79385663e+16 3.74714666e+16 3.72480431e+16)
(7.12032345e+16 4.82701539e+16 3.36968442e+16 4.20063318e+16 4.15298544e+16 4.13420367e+16)
(7.63849547e+16 5.26071829e+16 3.72963882e+16 4.61017773e+16 4.56096052e+16 4.54390876e+16)
(8.16648728e+16 5.70002105e+16 4.09087325e+16 5.02249374e+16 4.97114106e+16 4.95429307e+16)
(8.70401602e+16 6.14471219e+16 4.45346658e+16 5.43757983e+16 5.38358598e+16 5.36567733e+16)
(9.25079532e+16 6.59458788e+16 4.8174873e+16 5.8554301e+16 5.79834484e+16 5.77833603e+16)
(9.8065369e+16 7.04945197e+16 5.18299433e+16 6.2760343e+16 6.21545826e+16 6.19250279e+16)
(1.03709518e+17 7.50911582e+16 5.55003777e+16 6.69937801e+16 6.6349584e+16 6.60837485e+16)
(1.09437514e+17 7.97339802e+16 5.91865939e+16 7.12544269e+16 7.05686932e+16 7.026117e+16)
(1.15246483e+17 8.44212398e+16 6.28889322e+16 7.55420576e+16 7.48120721e+16 7.44586494e+16)
(1.2113357e+17 8.91512552e+16 6.66076582e+16 7.98564058e+16 7.90798067e+16 7.86772816e+16)
(1.27095942e+17 9.39224032e+16 7.03429673e+16 8.41971653e+16 8.33719094e+16 8.29179256e+16)
(1.33130794e+17 9.87331147e+16 7.4094987e+16 8.85639893e+16 8.76883205e+16 8.71812269e+16)
(1.39235351e+17 1.03581869e+17 7.78637793e+16 9.29564906e+16 9.20289103e+16 9.1467638e+16)
(1.45406869e+17 1.08467187e+17 8.16493438e+16 9.73742413e+16 9.63934806e+16 9.5777436e+16)
(1.51642637e+17 1.1338763e+17 8.54516185e+16 1.01816772e+17 1.00781767e+17 1.00110739e+17)
(1.57939977e+17 1.1834179e+17 8.92704826e+16 1.06283573e+17 1.05193437e+17 1.0446752e+17)
(1.64296241e+17 1.23328284e+17 9.31057573e+16 1.10774091e+17 1.09628099e+17 1.08847621e+17)
(1.70708816e+17 1.28345755e+17 9.69572077e+16 1.15287733e+17 1.14085295e+17 1.13250762e+17)
(1.77175116e+17 1.33392859e+17 1.00824544e+17 1.19823859e+17 1.18564506e+17 1.17676554e+17)
(1.83692583e+17 1.38468268e+17 1.04707421e+17 1.24381791e+17 1.23065154e+17 1.22124507e+17)
(1.90258686e+17 1.43570658e+17 1.08605444e+17 1.28960805e+17 1.27586602e+17 1.26594039e+17)
(1.96870917e+17 1.4869871e+17 1.12518162e+17 1.33560132e+17 1.32128157e+17 1.3108448e+17)
(2.03526786e+17 1.53851103e+17 1.16445075e+17 1.38178962e+17 1.36689066e+17 1.35595083e+17)
(2.10223822e+17 1.59026512e+17 1.20385634e+17 1.42816438e+17 1.41268523e+17 1.40125026e+17)
(2.16959567e+17 1.64223602e+17 1.24339236e+17 1.47471657e+17 1.45865667e+17 1.4467342e+17)
(2.23731573e+17 1.69441024e+17 1.28305233e+17 1.52143675e+17 1.50479583e+17 1.49239311e+17)
(2.30537401e+17 1.74677416e+17 1.32282926e+17 1.56831498e+17 1.55109304e+17 1.53821685e+17)
(2.37374612e+17 1.79931393e+17 1.36271568e+17 1.61534089e+17 1.5975381e+17 1.58419469e+17)
(2.44240767e+17 1.85201549e+17 1.40270364e+17 1.66250362e+17 1.64412029e+17 1.63031539e+17)
(2.51133425e+17 1.90486451e+17 1.44278471e+17 1.70979187e+17 1.69082839e+17 1.67656716e+17)
(2.58050134e+17 1.95784637e+17 1.48294999e+17 1.75719386e+17 1.73765069e+17 1.72293772e+17)
(2.6498843e+17 2.01094615e+17 1.52319011e+17 1.80469731e+17 1.78457496e+17 1.76941432e+17)
(2.71945835e+17 2.06414859e+17 1.56349523e+17 1.85228951e+17 1.83158848e+17 1.81598372e+17)
(2.78919848e+17 2.11743803e+17 1.60385502e+17 1.89995723e+17 1.87867803e+17 1.86263222e+17)
(2.85907946e+17 2.17079846e+17 1.64425872e+17 1.94768677e+17 1.9258299e+17 1.90934567e+17)
(2.9290758e+17 2.22421343e+17 1.68469505e+17 1.99546393e+17 1.97302989e+17 1.95610947e+17)
(2.99916166e+17 2.27766607e+17 1.7251523e+17 2.04327403e+17 2.02026332e+17 2.00290857e+17)
(3.06931087e+17 2.33113905e+17 1.76561827e+17 2.09110187e+17 2.06751498e+17 2.04972747e+17)
(3.13949687e+17 2.38461456e+17 1.80608029e+17 2.13893175e+17 2.1147692e+17 2.09655023e+17)
(3.20969267e+17 2.4380743e+17 1.84652521e+17 2.18674747e+17 2.16200979e+17 2.14336045e+17)
(3.27987083e+17 2.49149945e+17 1.88693941e+17 2.23453229e+17 2.20922006e+17 2.19014128e+17)
(3.35000342e+17 2.54487068e+17 1.92730877e+17 2.28226897e+17 2.25638281e+17 2.2368754e+17)
(3.42006195e+17 2.5981681e+17 1.96761871e+17 2.32993972e+17 2.30348033e+17 2.28354503e+17)
(3.49001741e+17 2.65137123e+17 2.00785413e+17 2.37752621e+17 2.35049439e+17 2.3301319e+17)
(3.55984017e+17 2.70445906e+17 2.04799947e+17 2.42500957e+17 2.39740622e+17 2.37661725e+17)
(3.62949998e+17 2.75740995e+17 2.08803864e+17 2.47237038e+17 2.44419652e+17 2.42298182e+17)
(3.69896595e+17 2.81020167e+17 2.12795506e+17 2.51958865e+17 2.49084547e+17 2.46920584e+17)
(3.7682065e+17 2.86281135e+17 2.16773167e+17 2.56664383e+17 2.53733265e+17 2.51526899e+17)
(3.83718935e+17 2.91521553e+17 2.20735086e+17 2.6135148e+17 2.58363713e+17 2.5611504e+17)
(3.90588153e+17 2.96739013e+17 2.24679461e+17 2.66017991e+17 2.62973743e+17 2.60682865e+17)
(3.97424923e+17 3.01931037e+17 2.2860443e+17 2.70661686e+17 2.67561143e+17 2.6522817e+17)
(4.04225777e+17 3.07095069e+17 2.32508073e+17 2.7528027e+17 2.72123639e+17 2.69748691e+17)
(4.1098716e+17 3.12228484e+17 2.36388414e+17 2.79871379e+17 2.76658895e+17 2.74242109e+17)
(4.17705423e+17 3.17328575e+17 2.40243416e+17 2.84432587e+17 2.81164508e+17 2.7870604e+17)
(4.24376824e+17 3.22392561e+17 2.44070982e+17 2.88961394e+17 2.85638009e+17 2.8313804e+17)
(4.30997524e+17 3.27417582e+17 2.47868957e+17 2.93455235e+17 2.90076866e+17 2.87535602e+17)
(4.37563583e+17 3.32400695e+17 2.51635122e+17 2.97911474e+17 2.94478475e+17 2.91896152e+17)
(4.4407096e+17 3.37338879e+17 2.553672e+17 3.02327403e+17 2.98840166e+17 2.9621705e+17)
(4.50515512e+17 3.42229028e+17 2.59062849e+17 3.06700242e+17 3.03159195e+17 3.00495588e+17)
(4.56892984e+17 3.47067951e+17 2.62719662e+17 3.11027136e+17 3.0743275e+17 3.04728986e+17)
(4.63199015e+17 3.51852374e+17 2.6633517e+17 3.15305155e+17 3.11657941e+17 3.08914394e+17)
(4.69429128e+17 3.5657893e+17 2.69906835e+17 3.19531292e+17 3.15831806e+17 3.13048886e+17)
(4.75578733e+17 3.61244166e+17 2.73432053e+17 3.23702461e+17 3.19951303e+17 3.17129462e+17)
(4.8164312e+17 3.65844534e+17 2.76908151e+17 3.27815495e+17 3.24013313e+17 3.21153042e+17)
(4.87617458e+17 3.70376396e+17 2.80332383e+17 3.31867144e+17 3.28014636e+17 3.25116469e+17)
(4.93496793e+17 3.74836015e+17 2.83701935e+17 3.35854074e+17 3.31951986e+17 3.29016501e+17)
(4.99276041e+17 3.79219557e+17 2.87013916e+17 3.39772866e+17 3.35821996e+17 3.32849814e+17)
(5.0494999e+17 3.83523091e+17 2.90265363e+17 3.43620012e+17 3.3962121e+17 3.36612996e+17)
(5.10513296e+17 3.87742579e+17 2.93453232e+17 3.47391911e+17 3.43346082e+17 3.40302548e+17)
(5.15960475e+17 3.91873883e+17 2.96574406e+17 3.51084874e+17 3.46992976e+17 3.4391488e+17)
(5.21285908e+17 3.95912756e+17 2.99625683e+17 3.54695113e+17 3.50558161e+17 3.47446307e+17)
(5.26483831e+17 3.99854845e+17 3.02603781e+17 3.58218747e+17 3.54037813e+17 3.5089305e+17)
(5.31548333e+17 4.03695681e+17 3.05505334e+17 3.61651792e+17 3.57428005e+17 3.54251232e+17)
(5.36473358e+17 4.07430686e+17 3.0832689e+17 3.64990166e+17 3.60724712e+17 3.57516874e+17)
(5.41252693e+17 4.11055163e+17 3.11064909e+17 3.68229681e+17 3.63923806e+17 3.60685893e+17)
(5.45879973e+17 4.14564297e+17 3.13715761e+17 3.71366041e+17 3.6702105e+17 3.637541e+17)
(5.50348672e+17 4.17953152e+17 3.16275724e+17 3.74394845e+17 3.70012103e+17 3.66717199e+17)
(5.54652102e+17 4.21216667e+17 3.18740983e+17 3.77311578e+17 3.72892508e+17 3.69570779e+17)
(5.5878341e+17 4.24349654e+17 3.21107626e+17 3.80111613e+17 3.75657698e+17 3.72310316e+17)
(5.62735575e+17 4.27346799e+17 3.23371643e+17 3.82790205e+17 3.7830299e+17 3.74931172e+17)
(5.66501404e+17 4.30202655e+17 3.25528925e+17 3.85342494e+17 3.80823584e+17 3.77428586e+17)
(5.70073533e+17 4.32911643e+17 3.27575264e+17 3.87763499e+17 3.83214558e+17 3.79797679e+17)
(5.73444425e+17 4.3546805e+17 3.29506347e+17 3.9004812e+17 3.85470875e+17 3.8203345e+17)
(5.76606367e+17 4.37866031e+17 3.31317762e+17 3.92191138e+17 3.87587374e+17 3.84130776e+17)
(5.79551477e+17 4.40099609e+17 3.33004996e+17 3.94187214e+17 3.89558778e+17 3.86084413e+17)
(5.82271704e+17 4.42162676e+17 3.34563434e+17 3.96030892e+17 3.91379693e+17 3.87889002e+17)
(5.84758837e+17 4.44048999e+17 3.35988371e+17 3.97716607e+17 3.93044614e+17 3.89539071e+17)
(5.8700451e+17 4.45752231e+17 3.37275008e+17 3.99238686e+17 3.94547935e+17 3.91029042e+17)
(5.89000219e+17 4.47265913e+17 3.38418467e+17 4.00591362e+17 3.95883951e+17 3.92353247e+17)
(5.90737337e+17 4.48583494e+17 3.39413797e+17 4.01768784e+17 3.97046878e+17 3.93505931e+17)
(5.92207129e+17 4.49698342e+17 3.40255985e+17 4.02765029e+17 3.98030863e+17 3.94481274e+17)
(5.93400782e+17 4.50603761e+17 3.40939974e+17 4.03574119e+17 3.98829996e+17 3.95273407e+17)
(5.94309414e+17 4.51293007e+17 3.41460667e+17 4.04190033e+17 3.99438331e+17 3.95876422e+17)
(5.94924107e+17 4.51759303e+17 3.41812944e+17 4.0460672e+17 3.9984989e+17 3.96284388e+17)
(5.95235913e+17 4.51995847e+17 3.41991658e+17 4.04818101e+17 4.00058671e+17 3.96491349e+17)
(5.15125613e+16 3.15267601e+16 1.9406532e+16 2.59002436e+16 2.54158432e+16 2.49372978e+16)
(5.66261522e+16 3.61390116e+16 2.37549023e+16 3.05730718e+16 3.01384045e+16 2.98927646e+16)
(6.1861957e+16 4.08287731e+16 2.81117091e+16 3.52778161e+16 3.48817385e+16 3.48260072e+16)
(6.7217439e+16 4.55932808e+16 3.24788065e+16 4.00147717e+16 3.96472241e+16 3.97450076e+16)
(7.26898636e+16 5.04297982e+16 3.68578142e+16 4.47841604e+16 4.44360735e+16 4.4656647e+16)
(7.8276349e+16 5.5335645e+16 4.12501535e+16 4.95861379e+16 4.92493527e+16 4.95668751e+16)
(8.39739041e+16 6.03082149e+16 4.56570741e+16 5.44207983e+16 5.40879932e+16 5.44808335e+16)
(8.9779457e+16 6.53449841e+16 5.00796714e+16 5.92881765e+16 5.89528008e+16 5.94029584e+16)
(9.56898812e+16 7.04435177e+16 5.45189033e+16 6.41882518e+16 6.38444649e+16 6.43370682e+16)
(1.01702016e+17 7.56014721e+16 5.89756029e+16 6.91209518e+16 6.87635662e+16 6.9286436e+16)
(1.07812681e+17 8.08165939e+16 6.34504882e+16 7.40861534e+16 7.37105813e+16 7.42538509e+16)
(1.14018694e+17 8.60867177e+16 6.79441699e+16 7.90836848e+16 7.86858884e+16 7.92416711e+16)
(1.20316874e+17 9.14097619e+16 7.24571581e+16 8.41133261e+16 8.36897699e+16 8.42518681e+16)
(1.26704059e+17 9.67837244e+16 7.69898683e+16 8.91748097e+16 8.87224164e+16 8.9286067e+16)
(1.33177105e+17 1.02206677e+17 8.15426254e+16 9.4267821e+16 9.37839289e+16 9.43455804e+16)
(1.39732897e+17 1.07676758e+17 8.61156683e+16 9.93919979e+16 9.88743212e+16 9.94314386e+16)
(1.46368348e+17 1.13192171e+17 9.07091531e+16 1.04546931e+17 1.03993523e+17 1.04544417e+17)
(1.53080405e+17 1.18751171e+17 9.53231561e+16 1.09732163e+17 1.09141379e+17 1.0968506e+17)
(1.59866053e+17 1.24352065e+17 9.99576767e+16 1.14947189e+17 1.14317655e+17 1.14853701e+17)
(1.66722309e+17 1.29993204e+17 1.0461264e+17 1.20191455e+17 1.19522038e+17 1.20050484e+17)
(1.7364623e+17 1.35672973e+17 1.09287897e+17 1.25464359e+17 1.24754135e+17 1.25275379e+17)
(1.80634904e+17 1.41389791e+17 1.13983231e+17 1.30765249e+17 1.30013479e+17 1.30528198e+17)
(1.87685459e+17 1.471421e+17 1.18698354e+17 1.36093422e+17 1.35299528e+17 1.35808609e+17)
(1.94795052e+17 1.52928362e+17 1.23432911e+17 1.41448127e+17 1.40611669e+17 1.41116145e+17)
(2.01960872e+17 1.58747053e+17 1.28186482e+17 1.4682856e+17 1.45949217e+17 1.46450223e+17)
(2.09180135e+17 1.64596658e+17 1.3295858e+17 1.52233868e+17 1.51311415e+17 1.51810143e+17)
(2.16450085e+17 1.70475665e+17 1.37748657e+17 1.57663144e+17 1.5669744e+17 1.57195106e+17)
(2.23767986e+17 1.7638256e+17 1.425561e+17 1.6311543e+17 1.62106403e+17 1.62604216e+17)
(2.31131121e+17 1.82315824e+17 1.47380234e+17 1.68589715e+17 1.67537346e+17 1.6803649e+17)
(2.38536788e+17 1.88273927e+17 1.52220326e+17 1.74084934e+17 1.72989249e+17 1.73490862e+17)
(2.45982296e+17 1.94255323e+17 1.5707558e+17 1.79599971e+17 1.78461027e+17 1.78966189e+17)
(2.53464964e+17 2.00258451e+17 1.61945139e+17 1.85133653e+17 1.83951532e+17 1.84461256e+17)
(2.60982112e+17 2.06281723e+17 1.6682809e+17 1.90684755e+17 1.89459554e+17 1.89974778e+17)
(2.68531058e+17 2.12323526e+17 1.71723459e+17 1.96251996e+17 1.94983825e+17 1.95505405e+17)
(2.76109118e+17 2.18382219e+17 1.76630215e+17 2.01834041e+17 2.00523012e+17 2.01051725e+17)
(2.83713597e+17 2.24456127e+17 1.81547267e+17 2.07429498e+17 2.06075725e+17 2.06612268e+17)
(2.91341788e+17 2.30543536e+17 1.86473467e+17 2.1303692e+17 2.11640514e+17 2.12185501e+17)
(2.98990963e+17 2.36642698e+17 1.91407611e+17 2.18654803e+17 2.17215871e+17 2.17769838e+17)
(3.06658376e+17 2.42751818e+17 1.96348435e+17 2.24281587e+17 2.22800228e+17 2.23363637e+17)
(3.14341252e+17 2.48869059e+17 2.01294619e+17 2.29915652e+17 2.28391958e+17 2.28965201e+17)
(3.22036787e+17 2.54992536e+17 2.06244784e+17 2.35555325e+17 2.33989377e+17 2.34572777e+17)
(3.29742143e+17 2.61120313e+17 2.11197494e+17 2.41198868e+17 2.39590742e+17 2.40184563e+17)
(3.3745444e+17 2.67250405e+17 2.16151255e+17 2.46844489e+17 2.45194252e+17 2.45798698e+17)
(3.45170761e+17 2.73380768e+17 2.21104516e+17 2.52490335e+17 2.50798045e+17 2.5141327e+17)
(3.52888136e+17 2.79509305e+17 2.26055667e+17 2.5813449e+17 2.56400201e+17 2.57026314e+17)
(3.60603549e+17 2.85633858e+17 2.31003039e+17 2.6377498e+17 2.61998741e+17 2.62635807e+17)
(3.68313928e+17 2.9175221e+17 2.35944904e+17 2.69409767e+17 2.67591625e+17 2.68239672e+17)
(3.76016143e+17 2.97862078e+17 2.40879475e+17 2.75036752e+17 2.73176751e+17 2.73835777e+17)
(3.83707002e+17 3.03961118e+17 2.45804905e+17 2.8065377e+17 2.78751958e+17 2.7942193e+17)
(3.91383248e+17 3.10046918e+17 2.50719286e+17 2.86258595e+17 2.84315018e+17 2.84995882e+17)
(3.99041557e+17 3.16116998e+17 2.5562065e+17 2.91848931e+17 2.89863643e+17 2.90555322e+17)
(4.0667853e+17 3.22168808e+17 2.60506966e+17 2.9742242e+17 2.95395481e+17 2.9609788e+17)
(4.14290696e+17 3.28199727e+17 2.65376143e+17 3.02976635e+17 3.00908111e+17 3.01621117e+17)
(4.21874504e+17 3.34207062e+17 2.70226027e+17 3.0850908e+17 3.06399047e+17 3.07122531e+17)
(4.29426331e+17 3.40188055e+17 2.75054408e+17 3.14017201e+17 3.11865744e+17 3.12599554e+17)
(4.36942458e+17 3.46139861e+17 2.79859006e+17 3.19498363e+17 3.17305577e+17 3.18049541e+17)
(4.44419075e+17 3.52059553e+17 2.84637473e+17 3.24949857e+17 3.22715849e+17 3.23469777e+17)
(4.51852271e+17 3.5794412e+17 2.89387387e+17 3.30368895e+17 3.28093789e+17 3.28857481e+17)
(4.59238036e+17 3.6379046e+17 2.94106256e+17 3.3575261e+17 3.33436549e+17 3.34209797e+17)
(4.66572256e+17 3.69595386e+17 2.98791513e+17 3.41098055e+17 3.38741202e+17 3.39523794e+17)
(4.73850712e+17 3.75355617e+17 3.03440521e+17 3.464022e+17 3.44004745e+17 3.44796467e+17)
(4.81069073e+17 3.81067784e+17 3.08050565e+17 3.51661937e+17 3.49224092e+17 3.50024732e+17)
(4.88222899e+17 3.86728423e+17 3.12618857e+17 3.56874069e+17 3.54396076e+17 3.55205423e+17)
(4.95307633e+17 3.92333974e+17 3.17142531e+17 3.62035315e+17 3.59517447e+17 3.60335295e+17)
(5.02318601e+17 3.97880781e+17 3.21618644e+17 3.67142307e+17 3.64584868e+17 3.65411016e+17)
(5.09251008e+17 4.0336509e+17 3.26044172e+17 3.72191588e+17 3.69594917e+17 3.70429169e+17)
(5.16099934e+17 4.08783044e+17 3.30416011e+17 3.77179609e+17 3.74544079e+17 3.75386249e+17)
(5.22860334e+17 4.14130685e+17 3.34730973e+17 3.82102729e+17 3.79428751e+17 3.80278659e+17)
(5.29527031e+17 4.19403949e+17 3.38985788e+17 3.8695721e+17 3.84245234e+17 3.85102709e+17)
(5.36094716e+17 4.24598664e+17 3.43177097e+17 3.91739219e+17 3.88989734e+17 3.89854614e+17)
(5.42557943e+17 4.29710549e+17 3.47301454e+17 3.96444822e+17 3.93658359e+17 3.94530489e+17)
(5.48911125e+17 4.34735212e+17 3.51355325e+17 4.01069984e+17 3.98247115e+17 3.9912635e+17)
(5.55148535e+17 4.39668145e+17 3.55335081e+17 4.05610566e+17 4.02751907e+17 4.03638109e+17)
(5.61264298e+17 4.44504724e+17 3.59237001e+17 4.1006232e+17 4.07168532e+17 4.08061571e+17)
(5.67252388e+17 4.49240206e+17 3.63057269e+17 4.14420893e+17 4.1149268e+17 4.12392435e+17)
(5.73106628e+17 4.53869725e+17 3.66791967e+17 4.18681817e+17 4.1571993e+17 4.16626284e+17)
(5.78820684e+17 4.5838829e+17 3.70437082e+17 4.22840511e+17 4.19845746e+17 4.20758591e+17)
(5.84388061e+17 4.62790785e+17 3.73988493e+17 4.26892276e+17 4.23865476e+17 4.24784707e+17)
(5.89802101e+17 4.6707196e+17 3.77441978e+17 4.30832296e+17 4.27774349e+17 4.28699865e+17)
(5.95055978e+17 4.71226434e+17 3.80793205e+17 4.34655628e+17 4.31567472e+17 4.32499172e+17)
(6.00142695e+17 4.75248691e+17 3.84037733e+17 4.38357207e+17 4.35239823e+17 4.36177608e+17)
(6.05055079e+17 4.79133073e+17 3.87171008e+17 4.41931837e+17 4.38786256e+17 4.39730022e+17)
(6.09785782e+17 4.82873781e+17 3.90188362e+17 4.45374193e+17 4.42201489e+17 4.4315113e+17)
(6.14327271e+17 4.86464872e+17 3.93085008e+17 4.48678815e+17 4.45480109e+17 4.4643551e+17)
(6.18671829e+17 4.89900254e+17 3.95856042e+17 4.51840105e+17 4.48616564e+17 4.49577601e+17)
(6.22811552e+17 4.93173687e+17 3.98496435e+17 4.54852329e+17 4.51605164e+17 4.525717e+17)
(6.26738345e+17 4.96278776e+17 4.01001036e+17 4.57709609e+17 4.54440078e+17 4.55411956e+17)
(6.30443923e+17 4.99208975e+17 4.03364571e+17 4.60405929e+17 4.5711533e+17 4.58092376e+17)
(6.3391981e+17 5.01957586e+17 4.05581639e+17 4.62935129e+17 4.59624805e+17 4.60606818e+17)
(6.37157342e+17 5.04517758e+17 4.07646717e+17 4.65290908e+17 4.61962246e+17 4.62948998e+17)
(6.40147668e+17 5.06882489e+17 4.09554159e+17 4.6746683e+17 4.64121258e+17 4.65112489e+17)
(6.4288176e+17 5.09044639e+17 4.11298204e+17 4.69456324e+17 4.66095316e+17 4.67090731e+17)
(6.45350423e+17 5.10996927e+17 4.12872981e+17 4.71252698e+17 4.6787777e+17 4.68877038e+17)
(6.47544308e+17 5.12731954e+17 4.14272517e+17 4.72849143e+17 4.69461857e+17 4.70464611e+17)
(6.49453928e+17 5.14242207e+17 4.15490752e+17 4.74238754e+17 4.70840718e+17 4.71846552e+17)
(6.51069681e+17 5.15520084e+17 4.16521552e+17 4.75414539e+17 4.72007411e+17 4.73015881e+17)
(6.52381876e+17 5.16557908e+17 4.17358723e+17 4.76369442e+17 4.72954931e+17 4.73965562e+17)
(6.53380748e+17 5.1734795e+17 4.17996029e+17 4.77096356e+17 4.73676224e+17 4.7468851e+17)
(6.54056493e+17 5.17882441e+17 4.18427203e+17 4.77588141e+17 4.74164206e+17 4.75177618e+17)
(6.54399274e+17 5.18153584e+17 4.18645946e+17 4.77837624e+17 4.7441176e+17 4.75425747e+17)
(5.62751112e+16 3.56175507e+16 2.29654205e+16 2.98857798e+16 2.94154256e+16 2.90509532e+16)
(6.18623552e+16 4.08289986e+16 2.81118085e+16 3.52778939e+16 3.48817149e+16 3.48258387e+16)
(6.7583686e+16 4.61284402e+16 3.32685088e+16 4.07069524e+16 4.03723725e+16 4.05759893e+16)
(7.34361561e+16 5.15125872e+16 3.84375813e+16 4.6173247e+16 4.58888711e+16 4.63102384e+16)
(7.94166652e+16 5.69782479e+16 4.36208661e+16 5.16770078e+16 5.1432543e+16 5.20363333e+16)
(8.55219831e+16 6.25223274e+16 4.88199949e+16 5.72183946e+16 5.70045718e+16 5.77610313e+16)
(9.17487822e+16 6.8141835e+16 5.40364124e+16 6.27975008e+16 6.26059999e+16 6.34902083e+16)
(9.80936631e+16 7.38338892e+16 5.92713935e+16 6.84143568e+16 6.82377355e+16 6.92289575e+16)
(1.04553177e+17 7.95957183e+16 6.45260571e+16 7.40689317e+16 7.39005589e+16 7.49816769e+16)
(1.11123845e+17 8.54246601e+16 6.98013793e+16 7.97611366e+16 7.95951295e+16 8.07521465e+16)
(1.17802174e+17 9.13181593e+16 7.50982031e+16 8.54908258e+16 8.532199e+16 8.65435941e+16)
(1.24584671e+17 9.72737629e+16 8.04172469e+16 9.12577984e+16 9.10815714e+16 9.23587531e+16)
(1.31467851e+17 1.03289115e+17 8.57591117e+16 9.70617987e+16 9.68741964e+16 9.81999128e+16)
(1.38448248e+17 1.09361952e+17 9.11242874e+16 1.02902517e+17 1.02700082e+17 1.04068962e+17)
(1.45522421e+17 1.15490093e+17 9.65131578e+16 1.08779589e+17 1.08559344e+17 1.09967429e+17)
(1.52686961e+17 1.21671436e+17 1.01926005e+17 1.14692597e+17 1.14451997e+17 1.15896514e+17)
(1.59938492e+17 1.27903949e+17 1.07363015e+17 1.20641068e+17 1.20377958e+17 1.21857122e+17)
(1.67273677e+17 1.34185666e+17 1.12824277e+17 1.26624475e+17 1.26337049e+17 1.2784989e+17)
(1.74689217e+17 1.40514672e+17 1.18309791e+17 1.32642235e+17 1.32328998e+17 1.3387521e+17)
(1.82181855e+17 1.46889106e+17 1.2381947e+17 1.38693709e+17 1.38353442e+17 1.39933252e+17)
(1.89748371e+17 1.53307145e+17 1.29353139e+17 1.44778203e+17 1.44409928e+17 1.46023985e+17)
(1.97385588e+17 1.59767004e+17 1.34910541e+17 1.50894963e+17 1.50497917e+17 1.52147191e+17)
(2.05090364e+17 1.66266924e+17 1.40491336e+17 1.57043182e+17 1.56616782e+17 1.58302488e+17)
(2.12859595e+17 1.7280517e+17 1.46095105e+17 1.6322199e+17 1.62765813e+17 1.64489337e+17)
(2.2069021e+17 1.7938002e+17 1.5172135e+17 1.69430462e+17 1.68944217e+17 1.70707056e+17)
(2.28579168e+17 1.85989764e+17 1.57369498e+17 1.75667613e+17 1.75151121e+17 1.76954837e+17)
(2.36523459e+17 1.92632694e+17 1.63038899e+17 1.81932395e+17 1.81385572e+17 1.83231749e+17)
(2.44520092e+17 1.99307101e+17 1.68728828e+17 1.88223704e+17 1.8764654e+17 1.8953675e+17)
(2.52566102e+17 2.0601127e+17 1.74438488e+17 1.94540373e+17 1.93932919e+17 1.95868697e+17)
(2.60658536e+17 2.12743471e+17 1.80167009e+17 2.00881174e+17 2.00243527e+17 2.02226348e+17)
(2.68794456e+17 2.1950196e+17 1.85913449e+17 2.07244816e+17 2.06577107e+17 2.08608373e+17)
(2.76970931e+17 2.26284971e+17 1.91676796e+17 2.13629949e+17 2.12932333e+17 2.15013356e+17)
(2.85185033e+17 2.33090711e+17 1.97455967e+17 2.20035155e+17 2.19307803e+17 2.214398e+17)
(2.93433834e+17 2.39917358e+17 2.0324981e+17 2.26458958e+17 2.25702047e+17 2.27886134e+17)
(3.017144e+17 2.46763055e+17 2.09057102e+17 2.32899815e+17 2.32113524e+17 2.34350712e+17)
(3.10023787e+17 2.53625911e+17 2.14876554e+17 2.3935612e+17 2.38540623e+17 2.40831818e+17)
(3.18359036e+17 2.60503989e+17 2.20706804e+17 2.45826201e+17 2.44981666e+17 2.47327667e+17)
(3.26717168e+17 2.67395311e+17 2.26546427e+17 2.52308323e+17 2.51434905e+17 2.53836411e+17)
(3.35095181e+17 2.74297851e+17 2.32393925e+17 2.58800682e+17 2.57898524e+17 2.60356134e+17)
(3.43490043e+17 2.81209529e+17 2.38247734e+17 2.65301411e+17 2.6437064e+17 2.66884856e+17)
(3.5189869e+17 2.88128217e+17 2.44106221e+17 2.71808573e+17 2.70849302e+17 2.73420536e+17)
(3.60318019e+17 2.95051724e+17 2.49967686e+17 2.78320166e+17 2.7733249e+17 2.79961068e+17)
(3.68744884e+17 3.01977806e+17 2.55830359e+17 2.84834118e+17 2.83818117e+17 2.86504285e+17)
(3.77176094e+17 3.08904153e+17 2.61692401e+17 2.91348288e+17 2.90304028e+17 2.93047957e+17)
(3.85608407e+17 3.15828393e+17 2.67551905e+17 2.97860466e+17 2.96787998e+17 2.9958979e+17)
(3.94038524e+17 3.22748087e+17 2.73406894e+17 3.0436837e+17 3.03267735e+17 3.06127425e+17)
(4.02463087e+17 3.29660726e+17 2.79255321e+17 3.10869648e+17 3.09740875e+17 3.1265844e+17)
(4.10878676e+17 3.36563732e+17 2.85095069e+17 3.17361875e+17 3.16204983e+17 3.19180348e+17)
(4.19281801e+17 3.43454453e+17 2.90923949e+17 3.23842551e+17 3.22657555e+17 3.25690592e+17)
(4.27668904e+17 3.50330162e+17 2.96739703e+17 3.30309106e+17 3.29096013e+17 3.32186548e+17)
(4.36036348e+17 3.57188055e+17 3.02539997e+17 3.36758889e+17 3.35517705e+17 3.38665523e+17)
(4.44380422e+17 3.64025249e+17 3.08322428e+17 3.43189176e+17 3.41919905e+17 3.45124749e+17)
(4.52697328e+17 3.70838781e+17 3.14084518e+17 3.49597165e+17 3.48299812e+17 3.51561386e+17)
(4.60983187e+17 3.77625605e+17 3.19823712e+17 3.55979974e+17 3.54654544e+17 3.57972512e+17)
(4.69234036e+17 3.84382601e+17 3.25537394e+17 3.62334651e+17 3.60981151e+17 3.64355134e+17)
(4.77445811e+17 3.91106553e+17 3.3122286e+17 3.68658153e+17 3.67276593e+17 3.70706166e+17)
(4.85614345e+17 3.97794153e+17 3.3687733e+17 3.74947353e+17 3.73537747e+17 3.77022444e+17)
(4.93735369e+17 4.04441995e+17 3.42497937e+17 3.81199033e+17 3.79761405e+17 3.83300724e+17)
(5.01804499e+17 4.11046579e+17 3.4808173e+17 3.87409885e+17 3.8594427e+17 3.89537679e+17)
(5.09817242e+17 4.17604301e+17 3.53625674e+17 3.93576509e+17 3.92082958e+17 3.95729895e+17)
(5.17768989e+17 4.24111457e+17 3.59126647e+17 3.99695413e+17 3.9817399e+17 4.0187387e+17)
(5.2565501e+17 4.30564242e+17 3.64581438e+17 4.05763007e+17 4.04213798e+17 4.07966012e+17)
(5.33470454e+17 4.36958742e+17 3.69986749e+17 4.11775608e+17 4.10198719e+17 4.14002634e+17)
(5.41210346e+17 4.43290939e+17 3.75339191e+17 4.17729431e+17 4.16124992e+17 4.19979955e+17)
(5.4886958e+17 4.49556703e+17 3.80635281e+17 4.23620592e+17 4.21988757e+17 4.25894096e+17)
(5.56442919e+17 4.55751796e+17 3.85871445e+17 4.29445106e+17 4.27786057e+17 4.31741078e+17)
(5.63924992e+17 4.61871864e+17 3.9104401e+17 4.3519888e+17 4.33512827e+17 4.37516817e+17)
(5.71310288e+17 4.67912436e+17 3.96149208e+17 4.40877715e+17 4.39164898e+17 4.43217127e+17)
(5.78593156e+17 4.73868924e+17 4.01183172e+17 4.46477305e+17 4.44737995e+17 4.4883771e+17)
(5.85767797e+17 4.79736621e+17 4.0614193e+17 4.51993229e+17 4.5022773e+17 4.5437416e+17)
(5.92828265e+17 4.85510692e+17 4.11021409e+17 4.57420953e+17 4.55629602e+17 4.59821955e+17)
(5.99768462e+17 4.91186179e+17 4.15817429e+17 4.62755826e+17 4.60938994e+17 4.65176455e+17)
(6.06582134e+17 4.96757994e+17 4.20525703e+17 4.67993076e+17 4.66151171e+17 4.70432903e+17)
(6.13262866e+17 5.02220919e+17 4.25141832e+17 4.73127809e+17 4.71261273e+17 4.75586416e+17)
(6.1980408e+17 5.07569599e+17 4.29661303e+17 4.78155007e+17 4.76264319e+17 4.80631985e+17)
(6.26199034e+17 5.12798543e+17 4.34079488e+17 4.83069521e+17 4.81155198e+17 4.85564473e+17)
(6.32440811e+17 5.17902119e+17 4.38391642e+17 4.87866073e+17 4.85928665e+17 4.90378607e+17)
(6.38522322e+17 5.2287455e+17 4.42592896e+17 4.92539247e+17 4.90579345e+17 4.95068979e+17)
(6.44436299e+17 5.27709916e+17 4.4667826e+17 4.97083492e+17 4.95101722e+17 4.99630039e+17)
(6.50175289e+17 5.32402142e+17 4.50642614e+17 5.01493114e+17 4.99490139e+17 5.04056093e+17)
(6.55731656e+17 5.36945001e+17 4.5448071e+17 5.05762276e+17 5.03738793e+17 5.08341298e+17)
(6.6109757e+17 5.41332112e+17 4.58187166e+17 5.09884991e+17 5.07841734e+17 5.1247966e+17)
(6.66265008e+17 5.45556928e+17 4.61756466e+17 5.13855123e+17 5.11792859e+17 5.16465029e+17)
(6.71225748e+17 5.49612743e+17 4.65182953e+17 5.17666378e+17 5.1558591e+17 5.20291094e+17)
(6.75971365e+17 5.53492682e+17 4.6846083e+17 5.21312309e+17 5.19214469e+17 5.23951383e+17)
(6.8049323e+17 5.57189702e+17 4.71584154e+17 5.24786305e+17 5.22671959e+17 5.27439256e+17)
(6.84782506e+17 5.60696586e+17 4.74546839e+17 5.28081595e+17 5.25951637e+17 5.30747905e+17)
(6.88830148e+17 5.64005946e+17 4.77342649e+17 5.31191242e+17 5.29046599e+17 5.3387035e+17)
(6.92626901e+17 5.67110221e+17 4.79965199e+17 5.34108148e+17 5.31949771e+17 5.36799444e+17)
(6.96163302e+17 5.70001675e+17 4.82407961e+17 5.3682505e+17 5.34653918e+17 5.39527866e+17)
(6.99429687e+17 5.72672406e+17 4.8466426e+17 5.39334527e+17 5.37151647e+17 5.42048134e+17)
(7.02416196e+17 5.75114347e+17 4.86727282e+17 5.41629003e+17 5.39435409e+17 5.44352608e+17)
(7.05112784e+17 5.7731928e+17 4.88590082e+17 5.43700761e+17 5.41497511e+17 5.46433499e+17)
(7.07509235e+17 5.79278843e+17 4.90245596e+17 5.45541948e+17 5.4333013e+17 5.48282885e+17)
(7.09595186e+17 5.80984552e+17 4.91686654e+17 5.47144597e+17 5.44925329e+17 5.4989273e+17)
(7.11360145e+17 5.82427817e+17 4.92905997e+17 5.48500643e+17 5.46275074e+17 5.512549e+17)
(7.1279352e+17 5.83599966e+17 4.93896297e+17 5.49601946e+17 5.47371258e+17 5.52361195e+17)
(7.13884644e+17 5.84492265e+17 4.94650175e+17 5.50440308e+17 5.48205722e+17 5.53203365e+17)
(7.14622804e+17 5.85095941e+17 4.95160216e+17 5.51007493e+17 5.48770269e+17 5.53773128e+17)
(7.14997251e+17 5.85402185e+17 4.95418972e+17 5.5129523e+17 5.49056667e+17 5.54062175e+17)
(6.11465572e+16 3.97735505e+16 2.65326803e+16 3.38986127e+16 3.34335709e+16 3.31522859e+16)
(6.72184848e+16 4.55938831e+16 3.24790776e+16 4.00149811e+16 3.96471565e+16 3.97445331e+16)
(7.3436827e+16 5.15129833e+16 3.84377657e+16 4.61733862e+16 4.58888229e+16 4.63099066e+16)
(7.97981903e+16 5.75270082e+16 4.4410993e+16 5.23741134e+16 5.2160123e+16 5.28580238e+16)
(8.62990622e+16 6.3632271e+16 5.04007917e+16 5.86173864e+16 5.84624808e+16 5.93974047e+16)
(9.29358273e+16 6.98252304e+16 5.64089841e+16 6.49033607e+16 6.47971777e+16 6.5935542e+16)
(9.97047901e+16 7.61024873e+16 6.2437196e+16 7.12321236e+16 7.11653523e+16 7.24789913e+16)
(1.06602196e+17 8.24607814e+16 6.84868702e+16 7.76036952e+16 7.75680031e+16 7.9033462e+16)
(1.13624251e+17 8.8896988e+16 7.45592789e+16 8.40180306e+16 8.40059926e+16 8.56039024e+16)
(1.20767139e+17 9.54081133e+16 8.06555354e+16 9.04750216e+16 9.04800522e+16 9.21945781e+16)
(1.28027035e+17 1.01991289e+17 8.67766037e+16 9.69744977e+16 9.69907861e+16 9.88091405e+16)
(1.35400122e+17 1.08643766e+17 9.29233073e+16 1.03516227e+17 1.03538675e+17 1.05450688e+17)
(1.42882594e+17 1.15362907e+17 9.90963362e+16 1.10099917e+17 1.10124078e+17 1.12121819e+17)
(1.50470674e+17 1.2214618e+17 1.05296254e+17 1.16725215e+17 1.16747239e+17 1.18824682e+17)
(1.58160612e+17 1.28991148e+17 1.11523502e+17 1.23391707e+17 1.23408285e+17 1.25561018e+17)
(1.65948694e+17 1.35895463e+17 1.17778407e+17 1.30098919e+17 1.30107231e+17 1.32332194e+17)
(1.73831248e+17 1.42856856e+17 1.24061182e+17 1.36846313e+17 1.36843983e+17 1.39139246e+17)
(1.81804643e+17 1.49873132e+17 1.30371934e+17 1.43633293e+17 1.43618337e+17 1.45982901e+17)