/*--------------------------------*- C++ -*----------------------------------*\
| =========                 |                                                 |
| \\      /  F ield         | OpenFOAM Extend Project: Open source CFD        |
|  \\    /   O peration     | Version:  1.6-ext                               |
|   \\  /    A nd           | Web:      www.extend-project.de                 |
|    \\/     M anipulation  |                                                 |
\*---------------------------------------------------------------------------*/
FoamFile
{
    version     2.0;
    format      ascii;
    class       volScalarField;
    location    "4000";
    object      p;
}
// * * * * * * * * * * * * * * * * * * * * * * * * * * * * * * * * * * * * * //

dimensions      [0 2 -2 0 0 0 0];

internalField   nonuniform List<scalar> 
40000
(
7.95322464e-10
2.86986155e-05
0.000123332328
0.000278149045
0.000474303576
0.000695582676
0.000928177928
0.00116047113
0.00138284235
0.00158739085
0.00176764272
0.0019182986
0.00203502691
0.00211429768
0.00215325022
0.00214958791
0.00210149457
0.00200756783
0.00186676573
0.00167836391
0.00144192092
0.00115724996
0.000824395608
0.000443614363
1.53581203e-05
-0.000459740122
-0.000980878945
-0.00154709999
-0.00215729859
-0.00281023386
-0.00350453843
-0.00423872797
-0.00501121063
-0.00582029645
-0.00666420688
-0.0075410843
-0.00844900164
-0.00938597217
-0.0103499593
-0.0113388864
-0.0123506468
-0.0133831139
-0.0144341509
-0.0155016209
-0.0165833968
-0.0176773714
-0.0187814668
-0.0198936449
-0.0210119165
-0.0221343517
-0.0232590897
-0.0243843499
-0.0255084441
-0.0266297924
-0.0277468977
-0.028858316
-0.0299627023
-0.0310587965
-0.0321454311
-0.0332215349
-0.0342861349
-0.0353383585
-0.0363774346
-0.0374026931
-0.0384135647
-0.0394095783
-0.0403903579
-0.0413556181
-0.0423051584
-0.0432388555
-0.0441566552
-0.0450585613
-0.0459446241
-0.0468149261
-0.0476695667
-0.0485086439
-0.049332235
-0.0501403746
-0.050933031
-0.0517100797
-0.0524712758
-0.053216224
-0.0539443473
-0.0546548545
-0.0553467069
-0.0560185856
-0.0566688597
-0.0572955582
-0.057896346
-0.0584685074
-0.0590089403
-0.0595141633
-0.0599803416
-0.0604033321
-0.0607787574
-0.0611020935
-0.0613688177
-0.0615744907
-0.061715059
-0.0617867221
-0.0601684005
-0.0601375648
-0.0600548655
-0.0599227197
-0.0597559411
-0.0595673621
-0.0593683183
-0.0591687377
-0.0589771745
-0.0588008944
-0.0586460226
-0.0585176966
-0.0584202058
-0.0583571137
-0.058331361
-0.0583453521
-0.0584010267
-0.0584999184
-0.0586432035
-0.0588317404
-0.059066103
-0.0593466078
-0.0596733366
-0.0600461561
-0.0604647344
-0.0609285554
-0.0614369316
-0.061989016
-0.0625838126
-0.063220187
-0.0638968758
-0.0646124964
-0.0653655564
-0.0661544632
-0.066977533
-0.0678330008
-0.0687190294
-0.0696337196
-0.0705751194
-0.0715412341
-0.0725300361
-0.0735394746
-0.0745674856
-0.0756120016
-0.0766709615
-0.0777423208
-0.0788240604
-0.0799141973
-0.0810107935
-0.0821119659
-0.0832158963
-0.0843208409
-0.0854251411
-0.0865272322
-0.0876256278
-0.0887189024
-0.0898057315
-0.0908848705
-0.0919551636
-0.093015547
-0.0940650513
-0.0951028038
-0.0961280293
-0.0971400499
-0.0981382845
-0.0991222466
-0.100091541
-0.101045859
-0.101984975
-0.102908734
-0.103817051
-0.104709891
-0.105587268
-0.106449222
-0.10729581
-0.108127083
-0.108943073
-0.109743769
-0.110529091
-0.11129887
-0.112052816
-0.112790495
-0.113511292
-0.114214386
-0.114898717
-0.115562951
-0.116205456
-0.116824274
-0.117417097
-0.117981256
-0.118513718
-0.119011088
-0.119469646
-0.119885383
-0.120254077
-0.120571377
-0.120832941
-0.121034515
-0.121172224
-0.121242415
-0.120957932
-0.120910338
-0.120824958
-0.120702006
-0.120552136
-0.120385068
-0.120209865
-0.120034791
-0.119867235
-0.119713678
-0.119579734
-0.119470223
-0.119389253
-0.119340297
-0.119326273
-0.119349602
-0.119412273
-0.119515885
-0.119661695
-0.11985065
-0.120083415
-0.120360404
-0.120681793
-0.121047549
-0.121457436
-0.121911034
-0.122407752
-0.122946839
-0.123527393
-0.124148371
-0.124808605
-0.1255068
-0.126241555
-0.127011366
-0.127814635
-0.128649682
-0.129514753
-0.130408031
-0.131327644
-0.132271672
-0.133238165
-0.134225142
-0.13523061
-0.136252569
-0.137289021
-0.138337983
-0.139397493
-0.140465623
-0.141540485
-0.142620244
-0.143703124
-0.144787418
-0.145871499
-0.146953826
-0.148032923
-0.14910738
-0.150175897
-0.151237248
-0.152290293
-0.153333979
-0.154367345
-0.155389524
-0.156399741
-0.157397315
-0.158381659
-0.159352275
-0.160308756
-0.161250774
-0.162178082
-0.163090503
-0.163987922
-0.164870276
-0.165737544
-0.166589731
-0.167426856
-0.168248931
-0.169055947
-0.169847852
-0.170624526
-0.171385759
-0.172131224
-0.172860449
-0.173572793
-0.174267407
-0.174943212
-0.175598868
-0.176232744
-0.176842897
-0.177427052
-0.177982586
-0.178506533
-0.178995587
-0.179446136
-0.179854301
-0.180216008
-0.180527066
-0.180783311
-0.180980655
-0.181115404
-0.181184025
-0.182367628
-0.182291899
-0.182191429
-0.182065351
-0.181920276
-0.181763355
-0.181601753
-0.181442197
-0.181290899
-0.181153471
-0.181034902
-0.180939573
-0.180871294
-0.180833344
-0.180828522
-0.18085919
-0.180927314
-0.181034505
-0.18118205
-0.181370941
-0.181601901
-0.181875407
-0.182191708
-0.18255084
-0.182952646
-0.183396784
-0.18388274
-0.184409843
-0.184977269
-0.185584057
-0.186229115
-0.186911228
-0.187629072
-0.188381219
-0.189166147
-0.189982251
-0.19082785
-0.191701198
-0.192600492
-0.193523883
-0.194469483
-0.19543538
-0.196419639
-0.19742032
-0.198435484
-0.1994632
-0.20050156
-0.201548682
-0.202602726
-0.203661897
-0.204724458
-0.205788736
-0.206853132
-0.207916131
-0.208976271
-0.210032154
-0.2110825
-0.212126103
-0.213161838
-0.214188665
-0.215205635
-0.216211885
-0.217206645
-0.218189235
-0.219159065
-0.220115633
-0.22105852
-0.221987391
-0.222901981
-0.223802097
-0.224687603
-0.225558415
-0.226414486
-0.227255796
-0.228082333
-0.228894082
-0.229691003
-0.230473013
-0.231239962
-0.23199161
-0.232727604
-0.233447449
-0.234150481
-0.234835838
-0.235502432
-0.236148923
-0.236773688
-0.237374806
-0.237950034
-0.238496798
-0.239012194
-0.239492998
-0.239935692
-0.240336509
-0.240691502
-0.240996618
-0.241247836
-0.241441208
-0.241573189
-0.241640327
-0.244383278
-0.244272004
-0.244148172
-0.244010603
-0.243862
-0.243707278
-0.243551951
-0.243401348
-0.243260543
-0.243134262
-0.243026815
-0.24294208
-0.242883493
-0.242854072
-0.242856431
-0.242892813
-0.242965114
-0.243074908
-0.243223474
-0.243411818
-0.24364069
-0.243910607
-0.244221867
-0.244574561
-0.244968591
-0.245403678
-0.245879374
-0.246395075
-0.246950026
-0.247543335
-0.248173977
-0.24884081
-0.249542577
-0.250277919
-0.251045383
-0.251843429
-0.252670445
-0.253524748
-0.254404598
-0.25530821
-0.256233756
-0.25717938
-0.258143206
-0.259123349
-0.260117919
-0.261125038
-0.262142843
-0.263169499
-0.264203205
-0.265242205
-0.266284797
-0.26732934
-0.268374259
-0.269418069
-0.270459319
-0.271496622
-0.272528717
-0.273554414
-0.274572606
-0.275582265
-0.276582452
-0.277572312
-0.27855108
-0.27951808
-0.28047272
-0.281414495
-0.282342983
-0.283257838
-0.284158787
-0.285045623
-0.285918196
-0.286776405
-0.287620185
-0.288449495
-0.289264303
-0.290064571
-0.290850239
-0.291621199
-0.292377282
-0.293118229
-0.293843668
-0.29455309
-0.295245821
-0.295920993
-0.29657752
-0.29721407
-0.29782904
-0.298420532
-0.298986343
-0.299523951
-0.300030514
-0.300502885
-0.300937635
-0.301331099
-0.30167944
-0.301978722
-0.302225046
-0.302414579
-0.302543905
-0.302609606
-0.306993183
-0.306842319
-0.306689925
-0.306535031
-0.306376773
-0.306218151
-0.306063283
-0.305916253
-0.305781082
-0.305661639
-0.305561555
-0.305484172
-0.305432518
-0.305409301
-0.30541691
-0.305457423
-0.305532625
-0.305644019
-0.305792845
-0.305980092
-0.306206514
-0.306472646
-0.306778813
-0.307125148
-0.307511593
-0.307937921
-0.308403736
-0.30890849
-0.309451487
-0.310031892
-0.310648745
-0.311300961
-0.311987346
-0.312706603
-0.313457339
-0.314238076
-0.315047261
-0.31588327
-0.316744422
-0.317628987
-0.318535193
-0.319461239
-0.320405299
-0.321365539
-0.322340117
-0.3233272
-0.324324969
-0.32533163
-0.326345421
-0.327364621
-0.328387559
-0.329412624
-0.330438264
-0.331463019
-0.332485452
-0.333504192
-0.334517985
-0.335525662
-0.336526128
-0.337518369
-0.338501456
-0.339474542
-0.340436869
-0.34138776
-0.342326629
-0.343252967
-0.34416635
-0.345066425
-0.345952913
-0.346825598
-0.347684318
-0.34852896
-0.349359444
-0.350175716
-0.350977728
-0.351765428
-0.352538738
-0.353297538
-0.354041644
-0.354770786
-0.355484583
-0.356182522
-0.356863928
-0.357527936
-0.358173473
-0.358799223
-0.359403608
-0.359984769
-0.360540546
-0.361068472
-0.361565773
-0.362029379
-0.362455946
-0.362841903
-0.363183515
-0.363476946
-0.363718403
-0.363904141
-0.364030858
-0.364095137
-0.370187911
-0.369995885
-0.36981198
-0.369635803
-0.369463376
-0.369296109
-0.369136972
-0.368988981
-0.368855216
-0.368738755
-0.368642576
-0.36856949
-0.368522106
-0.368502799
-0.368513704
-0.368556709
-0.368633459
-0.368745358
-0.368893579
-0.369079072
-0.369302574
-0.369564618
-0.369865541
-0.370205496
-0.370584457
-0.37100223
-0.371458464
-0.371952654
-0.372484152
-0.373052173
-0.373655809
-0.374294027
-0.374965689
-0.37566955
-0.376404272
-0.377168432
-0.377960529
-0.378778992
-0.379622195
-0.380488456
-0.381376055
-0.38228324
-0.383208233
-0.384149243
-0.385104475
-0.386072136
-0.387050448
-0.388037654
-0.389032026
-0.390031877
-0.391035565
-0.392041503
-0.393048166
-0.394054106
-0.395057912
-0.396058229
-0.397053799
-0.398043475
-0.399026175
-0.400000896
-0.400966718
-0.401922802
-0.402868394
-0.403802824
-0.404725504
-0.405635928
-0.406533667
-0.407418365
-0.408289739
-0.409147564
-0.409991671
-0.410821937
-0.411638275
-0.412440616
-0.413228905
-0.414003079
-0.41476305
-0.415508691
-0.416239811
-0.416956135
-0.417657284
-0.418342747
-0.419011855
-0.41966376
-0.420297407
-0.420911507
-0.421504519
-0.422074627
-0.422619725
-0.423137407
-0.423624971
-0.424079424
-0.424497511
-0.42487575
-0.425210497
-0.425498007
-0.425734576
-0.42591653
-0.426040658
-0.426103515
-0.433960118
-0.433727041
-0.43351033
-0.433310423
-0.433120679
-0.432941217
-0.432774093
-0.432621429
-0.432485494
-0.432368655
-0.432273289
-0.432201704
-0.432156095
-0.432138504
-0.4321508
-0.432194666
-0.432271586
-0.432382847
-0.432529537
-0.432712549
-0.432932583
-0.433190154
-0.433485596
-0.433819067
-0.43419056
-0.434599906
-0.43504678
-0.435530714
-0.436051098
-0.436607188
-0.437198118
-0.437822902
-0.438480445
-0.439169551
-0.43988893
-0.440637205
-0.441412924
-0.442214563
-0.443040541
-0.443889226
-0.44475894
-0.445647976
-0.4465546
-0.447477061
-0.448413605
-0.449362478
-0.450321937
-0.451290259
-0.452265749
-0.453246747
-0.45423164
-0.455218865
-0.456206916
-0.457194359
-0.458179811
-0.459161928
-0.46013945
-0.461111247
-0.462076247
-0.46303346
-0.463981972
-0.464920952
-0.465849651
-0.466767401
-0.467673617
-0.468567792
-0.469449496
-0.470318371
-0.471174128
-0.472016538
-0.472845426
-0.473660662
-0.47446215
-0.475249818
-0.476023602
-0.476783433
-0.47752922
-0.478260831
-0.478978076
-0.479680684
-0.48036828
-0.481040364
-0.481696285
-0.482335216
-0.482956129
-0.483557775
-0.484138655
-0.484697005
-0.48523078
-0.485737647
-0.486214977
-0.486659863
-0.487069136
-0.487439403
-0.487767107
-0.488048585
-0.488280209
-0.488458357
-0.488579897
-0.488641324
-0.498304335
-0.498031407
-0.497781756
-0.497556832
-0.497347725
-0.497153526
-0.496975582
-0.496815288
-0.496674225
-0.496554148
-0.496456892
-0.496384307
-0.496338197
-0.496320281
-0.496332165
-0.496375319
-0.496451059
-0.496560543
-0.496704761
-0.496884533
-0.497100511
-0.497353176
-0.497642846
-0.497969674
-0.498333658
-0.498734641
-0.499172319
-0.499646247
-0.500155843
-0.500700397
-0.501279077
-0.501890934
-0.502534913
-0.503209857
-0.503914516
-0.504647556
-0.505407565
-0.506193062
-0.507002509
-0.507834312
-0.508686837
-0.509558413
-0.510447347
-0.511351927
-0.512270433
-0.513201145
-0.514142354
-0.515092369
-0.516049522
-0.517012182
-0.517978759
-0.51894771
-0.519917551
-0.520886857
-0.521854275
-0.522818469
-0.523778176
-0.524732281
-0.525679722
-0.526619517
-0.527550761
-0.528472627
-0.52938437
-0.530285328
-0.531174913
-0.53205262
-0.532918018
-0.533770746
-0.534610511
-0.535437081
-0.536250276
-0.53704996
-0.537836034
-0.538608421
-0.539367052
-0.540111857
-0.540842743
-0.541559582
-0.542262187
-0.542950294
-0.543623542
-0.544281448
-0.544923384
-0.545548551
-0.54615596
-0.546744404
-0.547312438
-0.547858358
-0.54838019
-0.548875674
-0.54934227
-0.549777155
-0.550177252
-0.550539259
-0.550859704
-0.551134998
-0.551361582
-0.551535873
-0.551654804
-0.551714785
-0.563216744
-0.562905825
-0.562623895
-0.56237352
-0.562143864
-0.561933204
-0.561742352
-0.561572127
-0.561423546
-0.56129784
-0.56119638
-0.561120601
-0.561071954
-0.561051855
-0.561061658
-0.561102622
-0.561175896
-0.561282503
-0.561423324
-0.561599101
-0.561810423
-0.56205773
-0.562341311
-0.562661304
-0.563017701
-0.563410347
-0.563838948
-0.564303075
-0.564802165
-0.565335533
-0.565902374
-0.566501768
-0.567132691
-0.567794021
-0.568484542
-0.569202954
-0.569947883
-0.570717885
-0.571511456
-0.57232704
-0.573163038
-0.574017818
-0.574889717
-0.575777059
-0.576678157
-0.577591322
-0.578514875
-0.579447152
-0.580386514
-0.581331351
-0.582280096
-0.583231227
-0.584183274
-0.585134827
-0.586084556
-0.587031139
-0.587973302
-0.588909946
-0.589840018
-0.590762542
-0.59167662
-0.59258143
-0.593476231
-0.59436036
-0.595233233
-0.596094344
-0.59694326
-0.597779618
-0.598603122
-0.599413536
-0.600210677
-0.600994406
-0.601764619
-0.602521236
-0.603264189
-0.603993407
-0.604708799
-0.605410243
-0.606097559
-0.606770497
-0.607428713
-0.608071745
-0.608698995
-0.6093097
-0.609902914
-0.61047748
-0.611032013
-0.611564878
-0.612074178
-0.612557737
-0.613013104
-0.613437552
-0.613828099
-0.614181533
-0.614494472
-0.6147634
-0.614984817
-0.615155172
-0.615271451
-0.615329959
-0.628694903
-0.628348237
-0.628035208
-0.627759568
-0.627508834
-0.627280642
-0.627075414
-0.626893525
-0.626735536
-0.626602249
-0.626494638
-0.626413781
-0.626360812
-0.626336874
-0.626343084
-0.626380504
-0.626450119
-0.626552812
-0.626689359
-0.626860412
-0.627066494
-0.627307993
-0.627585161
-0.627898113
-0.628246823
-0.628631134
-0.62905075
-0.629505249
-0.629994081
-0.630516577
-0.631071951
-0.631659307
-0.632277645
-0.63292587
-0.633602795
-0.63430715
-0.635037591
-0.635792705
-0.636571021
-0.637371015
-0.638191119
-0.639029732
-0.639885224
-0.640755947
-0.641640245
-0.642536456
-0.643442929
-0.644358025
-0.645280128
-0.646207651
-0.647139047
-0.648072811
-0.64900749
-0.649941681
-0.650874083
-0.651803381
-0.652728296
-0.653647739
-0.654560664
-0.655466103
-0.656363162
-0.657251023
-0.658128947
-0.658996274
-0.659852421
-0.660696878
-0.661529212
-0.662349058
-0.663156117
-0.663950151
-0.664730972
-0.665498439
-0.666252446
-0.666992912
-0.667719769
-0.668432948
-0.669132364
-0.6698179
-0.67048939
-0.671146599
-0.671789204
-0.672416771
-0.673028733
-0.67362437
-0.674202782
-0.674762871
-0.675303318
-0.675822563
-0.676318789
-0.676789915
-0.677233583
-0.677647168
-0.678027788
-0.678372331
-0.678677499
-0.678939852
-0.679155951
-0.679322267
-0.679435832
-0.679492833
-0.694737529
-0.694357555
-0.694014942
-0.69371466
-0.693442812
-0.693196532
-0.69297597
-0.692781165
-0.692612323
-0.692469899
-0.692354538
-0.692267017
-0.692208195
-0.692178973
-0.692180254
-0.692212917
-0.692277788
-0.692375621
-0.692507081
-0.69267273
-0.692873019
-0.69310828
-0.693378722
-0.693684427
-0.694025347
-0.694401309
-0.694812014
-0.695257036
-0.695735833
-0.696247742
-0.696791991
-0.697367701
-0.69797389
-0.698609484
-0.699273318
-0.699964149
-0.700680657
-0.701421457
-0.702185104
-0.702970101
-0.70377491
-0.704597956
-0.705437637
-0.706292333
-0.707160411
-0.708040238
-0.708930186
-0.709828638
-0.710734
-0.711644707
-0.712559226
-0.713476071
-0.714393803
-0.715311027
-0.716226468
-0.717138817
-0.718046791
-0.718949308
-0.719845331
-0.720733896
-0.721614112
-0.722485167
-0.723346322
-0.724196918
-0.725036371
-0.725864171
-0.726679883
-0.727483141
-0.728273641
-0.729051143
-0.729815457
-0.730566439
-0.731303983
-0.732028006
-0.732738442
-0.733435226
-0.73411828
-0.734787497
-0.735442724
-0.736083746
-0.736710262
-0.737321868
-0.737918036
-0.73849809
-0.739061182
-0.739606276
-0.740132124
-0.740637246
-0.741119914
-0.741578142
-0.742009675
-0.742411994
-0.742782325
-0.743117654
-0.74341478
-0.743670337
-0.743880948
-0.744043105
-0.744153881
-0.744209333
-0.761344313
-0.760933545
-0.760563062
-0.760239063
-0.759946435
-0.759681914
-0.759445471
-0.759236904
-0.759056149
-0.758903387
-0.758778999
-0.758683514
-0.758617559
-0.758581822
-0.758577019
-0.758603862
-0.758663032
-0.758755157
-0.758880797
-0.759040425
-0.759234416
-0.759463044
-0.759726468
-0.760024731
-0.760357759
-0.760725358
-0.761127214
-0.761562897
-0.762031859
-0.762533444
-0.763066883
-0.763631309
-0.764225753
-0.764849157
-0.765500374
-0.766178179
-0.766881275
-0.767608297
-0.768357825
-0.769128386
-0.769918464
-0.77072651
-0.771550945
-0.772390173
-0.773242587
-0.774106573
-0.774980526
-0.775862851
-0.776751971
-0.77764634
-0.778544443
-0.779444807
-0.780346005
-0.781246652
-0.782145495
-0.783041233
-0.783932578
-0.784818456
-0.785697833
-0.786569751
-0.787433323
-0.788287738
-0.789132259
-0.789966228
-0.790789058
-0.791600242
-0.792399339
-0.793185982
-0.793959865
-0.794720744
-0.795468428
-0.796202771
-0.796923665
-0.79763103
-0.798324801
-0.799004919
-0.799671312
-0.800323886
-0.800962503
-0.801586969
-0.802197009
-0.802792252
-0.80337221
-0.803936252
-0.80448359
-0.805013251
-0.805524062
-0.806014626
-0.80648331
-0.806928227
-0.807347231
-0.807737914
-0.808097611
-0.808423419
-0.808712233
-0.808960768
-0.80916571
-0.809323575
-0.809431475
-0.809485332
-0.828515777
-0.828076725
-0.827680191
-0.827333603
-0.827020795
-0.82673819
-0.826485653
-0.826262818
-0.82606942
-0.825905435
-0.825771038
-0.825666555
-0.825592421
-0.825549148
-0.825537287
-0.825557404
-0.825610046
-0.825695728
-0.825814906
-0.825967966
-0.826155213
-0.826376853
-0.826632997
-0.826923646
-0.827248692
-0.827607914
-0.828000982
-0.82842745
-0.828886765
-0.829378266
-0.829901187
-0.830454665
-0.83103774
-0.831649364
-0.832288402
-0.832953647
-0.833643816
-0.834357563
-0.835093488
-0.835850137
-0.836626016
-0.837419595
-0.838229318
-0.83905361
-0.839890882
-0.840739544
-0.841598008
-0.842464697
-0.843338054
-0.844216547
-0.845098676
-0.845982983
-0.846868051
-0.847752505
-0.84863511
-0.849514569
-0.8503896
-0.851259125
-0.85212212
-0.852977629
-0.853824768
-0.854662727
-0.855490771
-0.85630824
-0.85711455
-0.857909188
-0.858691714
-0.859461757
-0.860219009
-0.860963224
-0.861694208
-0.862411815
-0.863115936
-0.863806492
-0.864483422
-0.865146672
-0.865796181
-0.866431865
-0.867053606
-0.867661229
-0.868254489
-0.868833049
-0.869396461
-0.869944147
-0.870475376
-0.870989243
-0.871484651
-0.871960292
-0.872414627
-0.872845876
-0.873252003
-0.873630716
-0.873979467
-0.874295463
-0.874575705
-0.874816994
-0.875016084
-0.875169517
-0.875274448
-0.875326658
-0.896253158
-0.895788274
-0.895367548
-0.894999628
-0.894667432
-0.894367137
-0.894098559
-0.893861229
-0.893654743
-0.893478926
-0.893333798
-0.893219526
-0.893136394
-0.893084763
-0.893065049
-0.893077687
-0.89312311
-0.893201723
-0.893313891
-0.893459917
-0.893640032
-0.89385438
-0.894103019
-0.894385905
-0.894702893
-0.895053733
-0.895438071
-0.895855443
-0.896305285
-0.896786928
-0.897299602
-0.897842444
-0.898414498
-0.899014721
-0.89964199
-0.900295106
-0.9009728
-0.901673742
-0.902396545
-0.903139773
-0.903901949
-0.904681563
-0.905477076
-0.90628693
-0.907109557
-0.907943382
-0.908786836
-0.909638358
-0.910496407
-0.911359466
-0.912226048
-0.913094706
-0.913964036
-0.914832673
-0.91569939
-0.916562894
-0.917421924
-0.918275386
-0.919122265
-0.919961608
-0.920792533
-0.921614233
-0.922425972
-0.92322709
-0.924017001
-0.924795192
-0.92556122
-0.926314711
-0.927055356
-0.927782906
-0.928497165
-0.929197986
-0.929885261
-0.930558913
-0.931218885
-0.931865129
-0.932497594
-0.933116211
-0.933720878
-0.934311444
-0.934887694
-0.935449326
-0.935995936
-0.936526996
-0.937041835
-0.937539618
-0.938019329
-0.938479747
-0.938919432
-0.939336711
-0.939729663
-0.940096114
-0.940433637
-0.940739559
-0.941010987
-0.941244815
-0.941437872
-0.941586732
-0.941688596
-0.941739109
-0.964558305
-0.964069952
-0.963626891
-0.96323897
-0.962888312
-0.962570899
-0.962286543
-0.962034719
-0.961814938
-0.96162692
-0.961470571
-0.961345942
-0.961253194
-0.961192574
-0.961164379
-0.961168937
-0.961206576
-0.961277611
-0.961382317
-0.96152092
-0.96169358
-0.961900384
-0.962141331
-0.962416334
-0.962725207
-0.963067669
-0.963443338
-0.96385173
-0.964292263
-0.964764257
-0.965266935
-0.96579943
-0.966360785
-0.96694996
-0.967565837
-0.968207224
-0.968872863
-0.969561434
-0.970271563
-0.971001827
-0.971750766
-0.972516882
-0.973298654
-0.97409454
-0.974902987
-0.975722436
-0.976551333
-0.977388134
-0.978231308
-0.979079354
-0.979930796
-0.980784198
-0.981638167
-0.982491354
-0.983342505
-0.984190366
-0.985033708
-0.985871396
-0.986702428
-0.987525853
-0.988340793
-0.98914644
-0.98994206
-0.990726991
-0.991500646
-0.99226251
-0.993012138
-0.993749155
-0.994473248
-0.995184166
-0.995881713
-0.996565741
-0.997236143
-0.997892844
-0.998535791
-0.999164945
-0.999780265
-1.0003817
-1.00096915
-1.00154251
-1.00210159
-1.00264612
-1.00317573
-1.00368997
-1.00418821
-1.00466969
-1.00513347
-1.00557843
-1.00600322
-1.00640629
-1.00678581
-1.00713976
-1.00746581
-1.00776142
-1.00802382
-1.00824998
-1.00843684
-1.00858099
-1.00867969
-1.00872845
-1.03343361
-1.03292404
-1.03246046
-1.03205391
-1.0316858
-1.03135197
-1.03105227
-1.03078614
-1.03055305
-1.03035267
-1.03018481
-1.03004945
-1.02994666
-1.02987659
-1.02983945
-1.02983546
-1.02986488
-1.02992794
-1.03002482
-1.03015569
-1.03032064
-1.0305197
-1.03075281
-1.03101983
-1.03132056
-1.03165466
-1.03202172
-1.03242124
-1.03285262
-1.03331516
-1.03380808
-1.03433049
-1.03488145
-1.0354599
-1.03606473
-1.03669476
-1.03734873
-1.03802534
-1.03872321
-1.03944093
-1.04017706
-1.04093012
-1.04169859
-1.04248095
-1.04327565
-1.04408116
-1.04489592
-1.04571842
-1.04654713
-1.04738057
-1.04821726
-1.04905578
-1.04989475
-1.05073283
-1.05156874
-1.05240128
-1.05322923
-1.05405142
-1.05486687
-1.05567463
-1.05647382
-1.05726363
-1.05804332
-1.05881224
-1.0595698
-1.06031548
-1.06104883
-1.06176947
-1.06247709
-1.06317144
-1.06385233
-1.06451959
-1.06517313
-1.06581287
-1.06643878
-1.0670508
-1.06764893
-1.0682331
-1.06880328
-1.06935934
-1.06990114
-1.07042844
-1.07094094
-1.07143821
-1.0719197
-1.07238472
-1.07283241
-1.07326173
-1.07367145
-1.07406011
-1.07442601
-1.07476725
-1.07508163
-1.07536673
-1.0756199
-1.07583822
-1.07601871
-1.07615802
-1.07625346
-1.07630043
-1.10288193
-1.10235328
-1.10187095
-1.10144712
-1.10106264
-1.1007132
-1.10039869
-1.1001186
-1.09987237
-1.09965962
-1.09948015
-1.09933386
-1.09922076
-1.09914093
-1.09909451
-1.09908166
-1.09910254
-1.09915731
-1.0992461
-1.09936901
-1.09952605
-1.09971721
-1.09994237
-1.10020137
-1.10049392
-1.10081969
-1.10117822
-1.10156898
-1.10199136
-1.10244463
-1.10292799
-1.10344058
-1.1039814
-1.10454943
-1.10514354
-1.10576255
-1.10640521
-1.10707022
-1.10775621
-1.10846179
-1.10918552
-1.10992592
-1.11068149
-1.11145073
-1.1122321
-1.11302407
-1.11382511
-1.11463371
-1.11544834
-1.11626755
-1.11708986
-1.11791386
-1.11873818
-1.11956148
-1.12038249
-1.12120001
-1.12201286
-1.12281984
-1.12361998
-1.12441232
-1.12519599
-1.12597018
-1.12673415
-1.12748724
-1.12822887
-1.12895851
-1.12967572
-1.13038011
-1.13107137
-1.13174924
-1.13241353
-1.13306409
-1.13370081
-1.13432363
-1.13493251
-1.13552742
-1.13610833
-1.13667524
-1.1372281
-1.13776682
-1.13829129
-1.13880131
-1.13929662
-1.13977684
-1.1402415
-1.14068995
-1.14112144
-1.14153501
-1.14192953
-1.14230364
-1.14265578
-1.14298415
-1.14328669
-1.14356112
-1.14380489
-1.14401522
-1.1441892
-1.14432355
-1.14441564
-1.14446076
-1.17290654
-1.1723608
-1.17186142
-1.17142168
-1.17102191
-1.17065771
-1.17032906
-1.17003546
-1.16977637
-1.16955142
-1.16936037
-1.1692031
-1.16907957
-1.16898982
-1.16893393
-1.168912
-1.16892413
-1.16897041
-1.16905093
-1.1691657
-1.16931471
-1.16949786
-1.16971502
-1.16996595
-1.17025034
-1.17056781
-1.17091788
-1.17129999
-1.1717135
-1.17215767
-1.17263169
-1.17313467
-1.17366562
-1.17422349
-1.17480717
-1.17541548
-1.17604715
-1.1767009
-1.17737537
-1.17806917
-1.17878086
-1.17950898
-1.18025204
-1.18100854
-1.18177696
-1.18255578
-1.18334347
-1.18413853
-1.18493947
-1.1857448
-1.18655309
-1.18736292
-1.18817293
-1.18898178
-1.18978819
-1.190591
-1.19138903
-1.19218108
-1.19296617
-1.19374335
-1.19451173
-1.19527053
-1.19601899
-1.19675645
-1.19748233
-1.19819611
-1.19889732
-1.1995856
-1.20026062
-1.20092213
-1.20156993
-1.20220387
-1.20282385
-1.20342981
-1.20402171
-1.20459954
-1.20516329
-1.20571295
-1.2062485
-1.20676989
-1.20727703
-1.20776976
-1.20824786
-1.20871101
-1.20915878
-1.20959063
-1.21000586
-1.21040362
-1.21078285
-1.21114233
-1.2114806
-1.21179599
-1.21208658
-1.2123502
-1.21258444
-1.21278664
-1.21295398
-1.21308327
-1.21317193
-1.21321517
-1.24351107
-1.24295013
-1.2424353
-1.24198097
-1.24156702
-1.24118897
-1.24084688
-1.24054032
-1.24026878
-1.2400319
-1.23982943
-1.23966126
-1.23952731
-1.2394276
-1.23936216
-1.23933104
-1.23933431
-1.23937199
-1.23944412
-1.23955067
-1.23969156
-1.23986665
-1.24007577
-1.24031862
-1.24059487
-1.24090409
-1.24124578
-1.24161935
-1.24202413
-1.24245937
-1.24292423
-1.2434178
-1.24393911
-1.24448708
-1.2450606
-1.24565848
-1.24627947
-1.24692228
-1.24758555
-1.2482679
-1.24896789
-1.24968408
-1.25041498
-1.2511591
-1.25191492
-1.25268094
-1.25345564
-1.25423752
-1.2550251
-1.25581692
-1.25661152
-1.25740751
-1.25820352
-1.25899823
-1.25979036
-1.26057877
-1.26136227
-1.26213966
-1.26290995
-1.26367222
-1.26442556
-1.26516919
-1.26590235
-1.2666244
-1.26733472
-1.26803281
-1.2687182
-1.26939052
-1.27004945
-1.27069473
-1.27132616
-1.2719436
-1.27254694
-1.27313613
-1.27371115
-1.27427197
-1.27481862
-1.27535109
-1.2758694
-1.2763735
-1.27686334
-1.27733882
-1.27779973
-1.27824583
-1.27867674
-1.27909199
-1.27949095
-1.27987287
-1.28023679
-1.28058159
-1.28090594
-1.28120829
-1.28148684
-1.28173956
-1.28196418
-1.28215814
-1.28231874
-1.28244286
-1.28252803
-1.28256934
-1.31469948
-1.31412508
-1.31359634
-1.3131287
-1.31270165
-1.31231069
-1.31195593
-1.31163702
-1.31135352
-1.31110507
-1.31089146
-1.31071257
-1.31056833
-1.31045871
-1.31038374
-1.31034343
-1.3103378
-1.31036685
-1.31043056
-1.31052884
-1.31066158
-1.3108286
-1.31102967
-1.31126447
-1.31153262
-1.31183367
-1.31216706
-1.3125322
-1.31292837
-1.31335482
-1.31381069
-1.31429506
-1.31480692
-1.31534522
-1.31590883
-1.31649654
-1.31710713
-1.31773927
-1.31839164
-1.31906284
-1.31975146
-1.32045603
-1.3211751
-1.32190716
-1.32265072
-1.32340427
-1.32416631
-1.32493535
-1.32570991
-1.32648852
-1.32726976
-1.32805223
-1.32883456
-1.32961544
-1.33039358
-1.33116787
-1.33193712
-1.33270012
-1.33345589
-1.33420349
-1.33494204
-1.33567073
-1.33638883
-1.33709566
-1.33779064
-1.33847323
-1.33914299
-1.33979952
-1.34044252
-1.34107172
-1.34168693
-1.342288
-1.34287484
-1.34344739
-1.34400562
-1.34454956
-1.3450792
-1.34559459
-1.34609573
-1.34658264
-1.34705527
-1.34751355
-1.34795735
-1.34838646
-1.34880056
-1.34919925
-1.34958199
-1.3499481
-1.35029673
-1.35062686
-1.35093727
-1.35122655
-1.35149302
-1.35173478
-1.3519497
-1.35213534
-1.35228913
-1.35240802
-1.35248962
-1.35252898
-1.38647601
-1.38588977
-1.38534856
-1.38486884
-1.38442978
-1.38402682
-1.38366019
-1.38332961
-1.38303469
-1.38277512
-1.38255073
-1.3823614
-1.38220706
-1.3820877
-1.38200331
-1.38195389
-1.38193941
-1.38195986
-1.38201515
-1.38210519
-1.3822298
-1.38238878
-1.38258184
-1.38280863
-1.38306874
-1.38336167
-1.38368686
-1.38404366
-1.38443136
-1.38484916
-1.3852962
-1.38577153
-1.38627416
-1.38680299
-1.3873569
-1.38793469
-1.38853511
-1.38915686
-1.38979859
-1.39045893
-1.39113645
-1.3918297
-1.39253723
-1.39325755
-1.39398915
-1.39473055
-1.39548025
-1.39623675
-1.39699859
-1.39776432
-1.3985325
-1.39930175
-1.4000707
-1.40083805
-1.4016025
-1.40236295
-1.40311822
-1.4038671
-1.40460861
-1.4053418
-1.4060658
-1.4067798
-1.40748306
-1.4081749
-1.40885474
-1.40952204
-1.41017636
-1.4108173
-1.41144455
-1.41205785
-1.41265701
-1.41324187
-1.41381235
-1.4143684
-1.41491001
-1.41543718
-1.41594996
-1.41644838
-1.41693249
-1.41740232
-1.41785785
-1.41829906
-1.41872586
-1.41913807
-1.41953546
-1.41991768
-1.42028428
-1.42063464
-1.42096803
-1.42128354
-1.42158005
-1.42185626
-1.42211065
-1.42234143
-1.42254661
-1.42272388
-1.42287079
-1.42298439
-1.42306239
-1.42309977
-1.45884514
-1.45824856
-1.45769625
-1.45720562
-1.45675559
-1.45634157
-1.45596388
-1.45562234
-1.4553166
-1.45504642
-1.45481167
-1.45461224
-1.4544481
-1.45431923
-1.4542256
-1.4541672
-1.454144
-1.45415593
-1.45420289
-1.45428475
-1.45440129
-1.45455227
-1.45473738
-1.45495623
-1.45520837
-1.45549327
-1.45581035
-1.45615893
-1.45653827
-1.45694756
-1.45738591
-1.45785237
-1.45834592
-1.45886548
-1.45940989
-1.45997797
-1.46056845
-1.46118004
-1.46181139
-1.46246111
-1.4631278
-1.46381001
-1.46450628
-1.46521513
-1.46593507
-1.4666646
-1.46740225
-1.46814651
-1.46889594
-1.46964907
-1.47040449
-1.47116081
-1.47191667
-1.47267077
-1.47342182
-1.4741687
-1.47491026
-1.47564529
-1.4763728
-1.47709184
-1.47780154
-1.47850109
-1.47918974
-1.47986682
-1.48053174
-1.48118398
-1.48182306
-1.48244862
-1.48306032
-1.48365791
-1.48424119
-1.48481003
-1.48536433
-1.48590406
-1.4864292
-1.48693978
-1.48743585
-1.48791747
-1.48838471
-1.4888376
-1.48927619
-1.48970047
-1.4901104
-1.49050586
-1.49088667
-1.49125255
-1.49160311
-1.49193785
-1.4922561
-1.49255706
-1.49283973
-1.49310293
-1.49334526
-1.49356508
-1.49376051
-1.49392939
-1.49406939
-1.49417766
-1.49425201
-1.49428739
-1.53181158
-1.53120606