/*--------------------------------*- C++ -*----------------------------------*\
| =========                 |                                                 |
| \\      /  F ield         | OpenFOAM Extend Project: Open source CFD        |
|  \\    /   O peration     | Version:  1.6-ext                               |
|   \\  /    A nd           | Web:      www.extend-project.de                 |
|    \\/     M anipulation  |                                                 |
\*---------------------------------------------------------------------------*/
FoamFile
{
    version     2.0;
    format      ascii;
    class       surfaceScalarField;
    location    "4000";
    object      phi;
}
// * * * * * * * * * * * * * * * * * * * * * * * * * * * * * * * * * * * * * //

dimensions      [0 3 -1 0 0 0 0];

internalField   nonuniform List<scalar> 
79600
(
-2.50275113e-08
2.50273401e-08
-5.4848272e-08
2.98208362e-08
-6.5227982e-08
1.03797507e-08
-4.37515255e-08
-2.14764387e-08
1.48394409e-08
-5.85909587e-08
1.11952668e-07
-9.71132222e-08
2.46900625e-07
-1.34947954e-07
4.17889882e-07
-1.70989253e-07
6.22572004e-07
-2.04682119e-07
8.5834611e-07
-2.35774104e-07
1.12252528e-06
-2.64179168e-07
1.41242791e-06
-2.89902632e-07
1.72542686e-06
-3.12998948e-07
2.05897479e-06
-3.33547923e-07
2.41061573e-06
-3.51640949e-07
2.77798907e-06
-3.67373341e-07
3.15882904e-06
-3.80839962e-07
3.55096202e-06
-3.92132981e-07
3.95230298e-06
-4.01340964e-07
4.36085149e-06
-4.0854851e-07
4.77468809e-06
-4.13836601e-07
5.19197104e-06
-4.17282959e-07
5.61093369e-06
-4.18962653e-07
6.02988242e-06
-4.18948729e-07
6.44719516e-06
-4.17312743e-07
6.86132052e-06
-4.14125364e-07
7.27077733e-06
-4.09456804e-07
7.67415455e-06
-4.03377227e-07
8.07011159e-06
-3.95957041e-07
8.45737875e-06
-3.8726716e-07
8.8347579e-06
-3.77379152e-07
9.20112323e-06
-3.66365336e-07
9.55542204e-06
-3.54298814e-07
9.89667548e-06
-3.4125344e-07
1.02239793e-05
-3.27303796e-07
1.05365043e-05
-3.1252504e-07
1.08334971e-05
-2.96992814e-07
1.11142802e-05
-2.80783064e-07
1.13782521e-05
-2.63971866e-07
1.16248873e-05
-2.46635228e-07
1.18537362e-05
-2.28848882e-07
1.20644242e-05
-2.10688062e-07
1.22566515e-05
-1.92227272e-07
1.24301916e-05
-1.7354006e-07
1.25848903e-05
-1.54698757e-07
1.27206646e-05
-1.35774249e-07
1.28375003e-05
-1.16835695e-07
1.29354505e-05
-9.79502706e-08
1.30146334e-05
-7.91828619e-08
1.30752291e-05
-6.05957176e-08
1.31174771e-05
-4.22479808e-08
1.31416718e-05
-2.41947508e-08
1.31481569e-05
-6.48507245e-09
1.31373068e-05
1.08500959e-08
1.31095185e-05
2.7788291e-08
1.30652274e-05
4.42911139e-08
1.30048993e-05
6.03280713e-08
1.29290284e-05
7.5870969e-08
1.28381332e-05
9.08951813e-08
1.2732753e-05
1.05380186e-07
1.26134431e-05
1.19309875e-07
1.24807702e-05
1.32672944e-07
1.2335307e-05
1.45463189e-07
1.21776272e-05
1.57679833e-07
1.20082994e-05
1.69327766e-07
1.18278816e-05
1.80417806e-07
1.16369147e-05
1.90966893e-07
1.14359164e-05
2.00998275e-07
1.12253748e-05
2.10541651e-07
1.10057416e-05
2.19633243e-07
1.07774257e-05
2.28315866e-07
1.05407868e-05
2.36638887e-07
1.02961287e-05
2.44658127e-07
1.0043693e-05
2.5243568e-07
9.7836534e-06
2.6003961e-07
9.51610988e-06
2.6754352e-07
9.24108392e-06
2.7502597e-07
8.95851421e-06
2.82569711e-07
8.66825352e-06
2.90260691e-07
8.37006672e-06
2.98186804e-07
8.06363037e-06
3.06436343e-07
7.74853432e-06
3.15096054e-07
7.42428548e-06
3.24248847e-07
7.09031455e-06
3.33970929e-07
6.74598603e-06
3.44328518e-07
6.39061217e-06
3.55373868e-07
6.0234714e-06
3.67140772e-07
5.64383198e-06
3.79639418e-07
5.25098122e-06
3.92850768e-07
4.84426068e-06
4.06720541e-07
4.42310738e-06
4.21153295e-07
3.98710057e-06
4.36006816e-07
3.5360125e-06
4.51088071e-07
3.06986177e-06
4.66150728e-07
2.58896413e-06
4.8089764e-07
2.09398037e-06
4.94983765e-07
1.58594572e-06
5.08034652e-07
1.06630346e-06
5.19642258e-07
5.36874771e-07
5.29428687e-07
5.36939287e-07
-6.45158711e-11
-2.95817441e-08
5.46091595e-08
-4.73559019e-08
4.75950504e-08
-9.39612983e-09
-2.75799911e-08
1.09205326e-07
-1.40077882e-07
3.21427836e-07
-2.70813463e-07
6.32465986e-07
-4.08151369e-07
1.04256585e-06
-5.45047811e-07
1.54890308e-06
-6.77326478e-07
2.14679138e-06
-8.02570417e-07
2.83045605e-06
-9.19438777e-07
3.59352579e-06
-1.0272489e-06
4.42934431e-06
-1.12572115e-06
5.33116625e-06
-1.21482089e-06
6.29227942e-06
-1.29466109e-06
7.30607911e-06
-1.36544063e-06
8.36611243e-06
-1.42740667e-06
9.46610314e-06
-1.48083067e-06
1.05999644e-05
-1.5259942e-06
1.17618043e-05
-1.56318088e-06
1.29459273e-05
-1.59267153e-06
1.41468335e-05
-1.61474277e-06
1.53592168e-05
-1.62966631e-06
1.65779637e-05
-1.63770958e-06
1.77981519e-05
-1.63913694e-06
1.90150499e-05
-1.63421071e-06
2.02241173e-05
-1.62319272e-06
2.14210058e-05
-1.60634537e-06
2.26015614e-05
-1.58393276e-06
2.37618258e-05
-1.55622148e-06
2.48980399e-05
-1.52348131e-06
2.60066464e-05
-1.48598562e-06
2.70842927e-05
-1.44401158e-06
2.8127834e-05
-1.39784017e-06
2.91343365e-05
-1.34775595e-06
3.01010797e-05
-1.29404697e-06
3.10255587e-05
-1.23700402e-06
3.19054862e-05
-1.17692035e-06
3.2738794e-05
-1.11409084e-06
3.35236335e-05
-1.04881138e-06
3.42583763e-05
-9.81378024e-07
3.49416136e-05
-9.12086185e-07
3.55721552e-05
-8.41229722e-07
3.6149028e-05
-7.69100047e-07
3.66714731e-05
-6.95985185e-07
3.71389431e-05
-6.22168737e-07
3.75510978e-05
-5.47928936e-07
3.79077996e-05
-4.73537501e-07
3.82091079e-05
-3.99258542e-07
3.84552723e-05
-3.25347232e-07
3.86467248e-05
-2.52048291e-07
3.87840707e-05
-1.79593867e-07
3.88680759e-05
-1.0819995e-07
3.88996504e-05
-3.80595275e-08
3.88798178e-05
3.06826799e-08
3.88096871e-05
9.79190192e-08
3.86904693e-05
1.63508834e-07
3.85234709e-05
2.27326539e-07
3.83100832e-05
2.8925862e-07
3.80517734e-05
3.49205015e-07
3.7750072e-05
4.07081549e-07
3.74065607e-05
4.62821205e-07
3.7022858e-05
5.16375636e-07
3.66006049e-05
5.67716351e-07
3.61414487e-05
6.16835989e-07
3.56470272e-05
6.63749299e-07
3.51189508e-05
7.08494141e-07
3.45587855e-05
7.51132286e-07
3.39680336e-05
7.91750133e-07
3.3348116e-05
8.30459266e-07
3.27003525e-05
8.67396749e-07
3.2025943e-05
9.02725384e-07
3.13259483e-05
9.36633543e-07
3.06012717e-05
9.69334745e-07
2.98526404e-05
1.00106697e-06
2.90805887e-05
1.03209137e-06
2.82854415e-05
1.06269065e-06
2.74673009e-05
1.09316665e-06
2.66260332e-05
1.12383738e-06
2.57612608e-05
1.15503307e-06
2.48723564e-05
1.18709124e-06
2.39584421e-05
1.22035064e-06
2.30183945e-05
1.25514365e-06
2.2050856e-05
1.29178733e-06
2.10542546e-05
1.33057234e-06
2.00268329e-05
1.37175023e-06
1.89666886e-05
1.41551811e-06
1.78718279e-05
1.46200147e-06
1.67402328e-05
1.51123452e-06
1.55699447e-05
1.56313891e-06
1.43591642e-05
1.61750106e-06
1.31063676e-05
1.6739499e-06
1.18104382e-05
1.7319362e-06
1.04708089e-05
1.79071742e-06
9.08760994e-06
1.84934965e-06
7.66181234e-06
1.90669524e-06
6.1953563e-06
1.9614398e-06
4.69124362e-06
2.01214733e-06
3.15360448e-06
2.0572814e-06
1.58766556e-06
2.09536761e-06
2.12479608e-06
-1.91232397e-10
-9.49957105e-09
6.4108771e-08
2.98444837e-08
8.25102624e-09
1.64003106e-07
-1.61738599e-07
4.21887187e-07
-3.97961959e-07
8.20270961e-07
-6.69197236e-07
1.36704265e-06
-9.54923054e-07
2.06377765e-06
-1.24178281e-06
2.90769642e-06
-1.52124524e-06
3.89309324e-06
-1.78796723e-06
5.01235177e-06
-2.03869731e-06
6.25665462e-06
-2.27155174e-06
7.61647325e-06
-2.48553978e-06
9.08190219e-06
-2.68024983e-06
1.06428855e-05
-2.85564442e-06
1.22893682e-05
-3.01192329e-06
1.40113965e-05
-3.14943495e-06
1.57991836e-05
-3.26861778e-06
1.76431517e-05
-3.36996233e-06
1.95339592e-05
-3.45398839e-06
2.14625172e-05
-3.5212295e-06
2.34200006e-05
-3.57222613e-06
2.53978551e-05
-3.6075209e-06
2.73878031e-05
-3.62765752e-06
2.93818474e-05
-3.63318131e-06
3.13722765e-05
-3.62463981e-06
3.33516688e-05
-3.60258496e-06
3.53128978e-05
-3.56757436e-06
3.72491379e-05
-3.52017289e-06
3.91538702e-05
-3.46095382e-06
4.10208888e-05
-3.39049989e-06
4.2844307e-05
-3.30940378e-06
4.46185636e-05
-3.21826822e-06
4.63384293e-05
-3.11770587e-06
4.79990119e-05
-3.00833858e-06
4.9595762e-05
-2.89079703e-06
5.1124477e-05
-2.76571906e-06
5.25813055e-05
-2.63374886e-06
5.39627499e-05
-2.49553523e-06
5.52656685e-05
-2.35172997e-06
5.64872766e-05
-2.20298612e-06
5.76251465e-05
-2.04995606e-06
5.86772063e-05
-1.8932895e-06
5.96417376e-05
-1.7336314e-06
6.05173724e-05
-1.57161994e-06
6.13030877e-05
-1.40788407e-06
6.19982002e-05
-1.24304141e-06
6.26023583e-05
-1.07769562e-06
6.31155336e-05
-9.12433821e-07
6.35380099e-05
-7.47823565e-07
6.38703709e-05
-5.84409234e-07
6.41134842e-05
-4.22707195e-07
6.42684826e-05
-2.63198383e-07
6.4336739e-05
-1.0631595e-07
6.43198324e-05
4.75892938e-08
6.42195014e-05
1.98250067e-07
6.40376494e-05
3.45360806e-07
6.37763415e-05
4.88634418e-07
6.34377868e-05
6.27813359e-07
6.30243224e-05
7.62669449e-07
6.25383946e-05
8.93009362e-07
6.19825382e-05
1.01867754e-06
6.13593543e-05
1.13955957e-06
6.06714858e-05
1.25558481e-06
5.99215926e-05
1.36672928e-06
5.9112324e-05
1.47301785e-06
5.82462917e-05
1.57452642e-06
5.73260402e-05
1.67138381e-06
5.63540171e-05
1.76377329e-06
5.53325425e-05
1.85193382e-06
5.42637785e-05
1.93616075e-06
5.31496975e-05
2.01680636e-06
5.19920516e-05
2.09427946e-06
5.0792342e-05
2.16904441e-06
4.95517893e-05
2.24161962e-06
4.8271306e-05
2.31257464e-06
4.69514703e-05
2.38252643e-06
4.55925028e-05
2.4521341e-06
4.4194248e-05
2.52209217e-06
4.27561593e-05
2.59312183e-06
4.12772906e-05
2.66595997e-06
3.97562954e-05
2.74134578e-06
3.81914352e-05
2.82000386e-06
3.65805979e-05
2.90262465e-06
3.49213304e-05
2.98983989e-06
3.32108857e-05
3.08219487e-06
3.14462889e-05
3.18011491e-06
2.96244224e-05
3.28386796e-06
2.77421351e-05
3.3935219e-06
2.57963755e-05
3.5088985e-06
2.3784352e-05
3.62952455e-06
2.17037177e-05
3.75458417e-06
1.95527793e-05
3.88287461e-06
1.73307228e-05
4.01277392e-06
1.50378476e-05
4.14222484e-06
1.26757931e-05
4.26874972e-06
1.02477408e-05
4.38949215e-06
7.75856446e-06
4.50132366e-06
5.21492386e-06
4.600922e-06
2.62523696e-06
4.68505451e-06
4.75034987e-06
-3.1682797e-10
2.35383986e-08
4.05703896e-08
1.4637308e-07
-1.14583642e-07
4.07993319e-07
-4.23358834e-07
8.35516697e-07
-8.25485336e-07
1.4458679e-06
-1.27954844e-06
2.24769651e-06
-1.75675166e-06
3.24319588e-06
-2.23728219e-06
4.429703e-06
-2.70775236e-06
5.80101323e-06
-3.15927746e-06
7.34841249e-06
-3.58609656e-06
9.06146248e-06
-3.98460174e-06
1.09285856e-05
-4.35266294e-06
1.29374926e-05
-4.68915677e-06
1.50754917e-05
-4.99364355e-06
1.73297101e-05
-5.26614167e-06
1.96872509e-05
-5.50697573e-06
2.21353041e-05
-5.71667098e-06
2.46612246e-05
-5.89588286e-06
2.72525878e-05
-6.04535158e-06
2.98972283e-05
-6.16587e-06
3.25832691e-05
-6.25826695e-06
3.52991432e-05
-6.32339494e-06
3.80336103e-05
-6.36212469e-06
4.07757722e-05
-6.37534316e-06
4.35150846e-05
-6.36395226e-06
4.62413702e-05
-6.32887054e-06
4.89448297e-05
-6.27103388e-06
5.16160538e-05
-6.19139693e-06
5.4246034e-05
-6.09093402e-06
5.68261743e-05
-5.97064024e-06
5.93483021e-05
-5.83153152e-06
6.18046783e-05
-5.67464442e-06
6.41880078e-05
-5.5010354e-06
6.64914485e-05
-5.31177929e-06
6.87086198e-05
-5.10796833e-06
7.08336099e-05
-4.89070921e-06
7.28609824e-05
-4.66112135e-06
7.4785781e-05
-4.42033381e-06
7.66035335e-05
-4.16948243e-06
7.83102539e-05
-3.90970656e-06
7.99024436e-05
-3.64214577e-06
8.13770903e-05
-3.3679362e-06
8.27316658e-05
-3.08820691e-06
8.3964122e-05
-2.80407615e-06
8.50728851e-05
-2.5166471e-06
8.60568477e-05
-2.22700402e-06
8.69153596e-05
-1.93620753e-06
8.76482158e-05
-1.64529e-06
8.82556422e-05
-1.35524998e-06
8.87382788e-05
-1.06704585e-06
8.90971589e-05
-7.8158731e-07
8.9333684e-05
-4.99723507e-07
8.94495931e-05
-2.22224997e-07
8.94469283e-05
5.02540887e-08
8.93279734e-05
3.17204981e-07
8.90952414e-05
5.78092772e-07
8.87514758e-05
8.324e-07
8.82996245e-05
1.07966471e-06
8.7742818e-05
1.31947597e-06
8.70843439e-05
1.55148338e-06
8.63276191e-05
1.77540241e-06
8.54761584e-05
1.99102023e-06
8.45335427e-05
2.19820052e-06
8.35033836e-05
2.39688839e-06
8.23892871e-05
2.58711436e-06
8.11948153e-05
2.76899824e-06
7.99234467e-05
2.94275238e-06
7.85785356e-05
3.10868444e-06
7.71632698e-05
3.26719962e-06
7.56806287e-05
3.41880181e-06
7.41333406e-05
3.56409452e-06
7.25238398e-05
3.70378023e-06
7.08542256e-05
3.83865865e-06
6.91262213e-05
3.96962391e-06
6.73411364e-05
4.09765957e-06
6.54998309e-05
4.22383189e-06
6.36026844e-05
4.34928063e-06
6.16495695e-05
4.47520709e-06
5.96398325e-05
4.60285881e-06
5.75722822e-05
4.73351029e-06
5.54451885e-05
4.86843948e-06
5.32562939e-05
5.00889838e-06
5.10028398e-05
5.15607882e-06
4.86816098e-05
5.31106986e-06
4.6288995e-05
5.47480963e-06
4.38210825e-05
5.64802741e-06
4.12737715e-05
5.83117899e-06
3.86429201e-05
6.02437335e-06
3.59245249e-05
6.22729362e-06
3.31149361e-05
6.43911343e-06
3.02111047e-05
6.65841556e-06
2.72108625e-05
6.88311676e-06
2.41132237e-05
7.11041275e-06
2.0918697e-05
7.33675155e-06
1.76295892e-05
7.55785757e-06
1.42502749e-05
7.76880645e-06
1.07874005e-05
7.96419806e-06
7.25000386e-06
8.13831861e-06
3.64948573e-06
8.28557264e-06
8.40027691e-06
-4.41304392e-10
6.24479329e-08
-2.18775368e-08
2.83444631e-07
-3.35580336e-07
6.91975083e-07
-8.31889287e-07
1.30969135e-06
-1.4432016e-06
2.15085703e-06
-2.12071412e-06
3.22298071e-06
-2.82887533e-06
4.52778163e-06
-3.5420831e-06
6.06225711e-06
-4.24222784e-06
7.81969866e-06
-4.91671901e-06
9.79058203e-06
-5.55697992e-06
1.19633066e-05
-6.15732627e-06
1.43247888e-05
-6.7141452e-06
1.6860926e-05
-7.2252939e-06
1.95569523e-05
-7.68966992e-06
2.2397709e-05
-8.10689835e-06
2.53678471e-05
-8.47711381e-06
2.84519792e-05
-8.80080309e-06
3.16347929e-05
-9.07869655e-06
3.49011363e-05
-9.31169497e-06
3.82360822e-05
-9.5008159e-06
4.16249787e-05
-9.64716346e-06
4.50534886e-05
-9.75190483e-06
4.85076218e-05
-9.81625788e-06
5.19737631e-05
-9.84148453e-06
5.54386964e-05
-9.82888551e-06
5.88896263e-05
-9.7798005e-06
6.23141993e-05
-9.69560681e-06
6.57005222e-05
-9.57771985e-06
6.90371811e-05
-9.42759295e-06
7.23132588e-05
-9.2467179e-06
7.55183512e-05
-9.03662394e-06
7.86425835e-05
-8.79887675e-06
8.16766248e-05
-8.53507669e-06
8.46117015e-05
-8.24685596e-06
8.74396098e-05
-7.93587669e-06
9.01527268e-05
-7.60382612e-06
9.27440192e-05
-7.25241375e-06
9.52070517e-05
-6.88336632e-06
9.75359926e-05
-6.49842334e-06
9.97256179e-05
-6.09933188e-06
0.000101771314
-5.68784144e-06
0.000103669076
-5.26569815e-06
0.000105415508
-4.83463916e-06
0.000107007818
-4.39638669e-06
0.000108443813
-3.95264142e-06
0.000109721885
-3.50507639e-06
0.000110841007
-3.05532961e-06
0.000111800714
-2.60499679e-06
0.000112601086
-2.15562259e-06
0.000113242732
-1.70869089e-06
0.000113726756
-1.26561189e-06
0.000114054738
-8.27705527e-07
0.00011422869
-3.96177227e-07
0.000114251027
2.79172682e-08
0.000114124494
4.43738091e-07
0.000113852132
8.50454774e-07
0.000113437284
1.24724841e-06
0.000112883558
1.63339055e-06
0.000112194803
2.00823074e-06
0.000111375075
2.37121116e-06
0.000110428603
2.72187497e-06
0.000109359748
3.05987538e-06
0.000108172965
3.38498302e-06
0.00010687276
3.69709366e-06
0.00010546364
3.99623431e-06
0.000103950069
4.28256934e-06
0.000102336416
4.55640544e-06
0.000100626904
4.81819602e-06
9.88255591e-05
5.06854465e-06
9.69361541e-05
5.30820676e-06
9.49621574e-05
5.53809125e-06
9.29066784e-05
5.75925928e-06
9.07724153e-05
5.97292168e-06
8.85616047e-05
6.18043451e-06
8.6275973e-05
6.38329127e-06
8.39166924e-05
6.58311256e-06
8.14843413e-05
6.78163171e-06
7.8978872e-05
6.98067635e-06
7.63995861e-05
7.18214474e-06
7.37451203e-05
7.38797612e-06
7.10134452e-05
7.60011451e-06
6.82018801e-05
7.82046358e-06
6.53071245e-05
8.05083432e-06
6.23253145e-05
8.29287993e-06
5.92521017e-05
8.54802236e-06
5.60827649e-05
8.81736427e-06
5.28123529e-05
9.101591e-06
4.94358667e-05
9.4008595e-06
4.59484814e-05
9.714679e-06
4.23458099e-05
1.00417849e-05
3.86242092e-05
1.03800163e-05
3.47811229e-05
1.0726203e-05
3.0815453e-05
1.10760827e-05
2.67279435e-05
1.14242611e-05
2.25215549e-05
1.17642461e-05
1.82017983e-05
1.2088563e-05
1.37769894e-05
1.2389007e-05
9.25839568e-06
1.26569124e-05
4.66020692e-06
1.28837614e-05
1.30610485e-05
-5.64649002e-10
1.03435681e-07
-1.25313216e-07
4.29611207e-07
-6.61755862e-07
9.95823588e-07
-1.39810167e-06
1.81627396e-06
-2.26365197e-06
2.90064188e-06
-3.20508205e-06
4.25372666e-06
-4.18196011e-06
5.87565834e-06
-5.16401479e-06
7.76241853e-06
-6.12898802e-06
9.90648792e-06
-7.06078839e-06
1.22975067e-05
-7.94799871e-06
1.49228845e-05
-8.78270407e-06
1.77683326e-05
-9.55959328e-06
2.0818309e-05
-1.02752703e-05
2.40563832e-05
-1.09277441e-05
2.74655266e-05
-1.15160418e-05
3.10283447e-05
-1.20399319e-05
3.47272581e-05
-1.24997165e-05
3.85446453e-05
-1.28960837e-05
4.24629557e-05
-1.32300054e-05
4.64647985e-05
-1.35026587e-05
5.05330154e-05
-1.37153803e-05
5.4650739e-05
-1.38696285e-05
5.88014433e-05
-1.39669621e-05
6.29689855e-05
-1.40090268e-05
6.71376441e-05
-1.39975441e-05
7.12921522e-05
-1.39343086e-05
7.54177288e-05
-1.38211834e-05
7.9500107e-05
-1.3660098e-05
8.35255608e-05
-1.34530468e-05
8.74809304e-05
-1.32020875e-05
9.13536453e-05
-1.29093388e-05
9.51317466e-05
-1.25769781e-05
9.88039071e-05
-1.22072372e-05
0.00010235945
-1.18023988e-05
0.000105788366
-1.13647923e-05
0.000109081326
-1.08967869e-05
0.0001122297
-1.04007873e-05
0.00011522556
-9.8792261e-06
0.000118061694
-9.33455739e-06
0.000120731611
-8.76924907e-06
0.000123229545
-8.18577549e-06
0.000125550456
-7.58660904e-06
0.000127690029
-6.97421205e-06
0.00012964467
-6.35102822e-06
0.000131411502
-5.71947309e-06
0.000132988351
-5.08192524e-06
0.000134373737
-4.44071558e-06
0.000135566857
-3.79811692e-06
0.000136567566
-3.15633152e-06
0.000137376352
-2.51747726e-06
0.00013799431
-1.8835701e-06
0.000138423107
-1.25650248e-06
0.000138664943
-6.38012787e-07
0.000138722512
-2.9651503e-08
0.000138598938
5.6731175e-07
0.000138297714
1.15167826e-06
0.000137822703
1.72225966e-06
0.000137178098
2.27799621e-06
0.000136368389
2.81793894e-06
0.000135398331
3.34126965e-06
0.000134272893
3.84731302e-06
0.000132997219
4.33554943e-06
0.000131576576
4.80562546e-06
0.000130016305
5.25736487e-06
0.000128321762
5.69077734e-06
0.000126498264
6.10606726e-06
0.000124551029
6.5036408e-06
0.000122485113
6.88411229e-06
0.000120305348
7.24830905e-06
0.000118016281
7.59727398e-06
0.000115622105
7.93226768e-06
0.000113126597
8.2547669e-06
0.000110533058
8.56646067e-06
0.000107844248
8.86924404e-06
0.000105062333
9.16520689e-06
0.000102188826
9.45661919e-06
9.92245474e-05
9.74591054e-06
9.61695799e-05
1.00356438e-05
9.30232428e-05
1.03284818e-05
8.97840742e-05
1.06271448e-05
8.64498292e-05
1.09343595e-05
8.30174973e-05
1.12527954e-05
7.94833407e-05
1.15849909e-05
7.58429592e-05
1.19332615e-05
7.20913847e-05
1.22995969e-05
6.82232115e-05
1.26855374e-05
6.42327653e-05
1.30920372e-05
6.01143157e-05
1.3519309e-05
5.58623369e-05
1.39666578e-05
5.14718163e-05
1.44323055e-05
4.6938612e-05
1.49132205e-05
4.22598543e-05
1.54049608e-05
3.74343793e-05
1.59015577e-05
3.24631803e-05
1.639546e-05
2.73498476e-05
1.68775788e-05
2.21009635e-05
1.73374472e-05
1.6726407e-05
1.77635635e-05
1.12395294e-05
1.81437899e-05
5.65712966e-06
1.84661611e-05
1.8718865e-05
-6.86840001e-10
1.44421663e-07
-2.69734878e-07
5.77916894e-07
-1.09525109e-06
1.30638974e-06
-2.12657452e-06
2.33581973e-06
-3.29308197e-06
3.67017806e-06
-4.53944038e-06
5.31042698e-06
-5.82220902e-06
7.25415767e-06
-7.10774549e-06
9.49563809e-06
-8.37046844e-06
1.20260986e-05
-9.59124891e-06
1.48341333e-05
-1.07560334e-05
1.79061358e-05
-1.18547065e-05
2.12267232e-05
-1.28801807e-05
2.47791215e-05
-1.38276686e-05
2.85455024e-05
-1.4694125e-05
3.25072694e-05
-1.54778088e-05
3.66452972e-05
-1.61779597e-05
4.09401295e-05
-1.67945488e-05
4.53721411e-05
-1.73280954e-05
4.9921673e-05
-1.77795372e-05
5.45691413e-05
-1.81501271e-05
5.92951314e-05
-1.84413704e-05
6.40804749e-05
-1.8654972e-05
6.89063171e-05
-1.87928043e-05
7.37541751e-05
-1.88568848e-05
7.86059898e-05
-1.88493588e-05
8.34441721e-05
-1.8772491e-05
8.82516458e-05
-1.86286571e-05
9.3011886e-05
-1.84203382e-05
9.77089554e-05
-1.81501162e-05
0.000102327538
-1.78206699e-05
0.000106852969
-1.74347703e-05
0.000111271267
-1.69952756e-05
0.000115569155
-1.65051255e-05
0.00011973409
-1.5967334e-05
0.000123754283
-1.53849847e-05
0.000127618716
-1.47612199e-05
0.000131317163
-1.40992345e-05
0.000134840203
-1.34022658e-05
0.00013817923
-1.26735844e-05
0.000141326464
-1.19164836e-05
0.000144274958
-1.11342695e-05
0.000147018599
-1.03302495e-05
0.000149552108
-9.50772088e-06
0.000151871039
-8.66995981e-06
0.000153971774
-7.82020783e-06
0.000155851509
-6.96166012e-06
0.000157508244
-6.09745089e-06
0.000158940766
-5.23063932e-06
0.000160148628
-4.36419275e-06
0.000161132119
-3.50096851e-06
0.00016189224
-2.64369129e-06
0.000162430664
-1.79492642e-06
0.000162749695
-9.57043652e-07
0.000162852221
-1.32177411e-07
0.000162741661
6.77871568e-07
0.000162421885
1.47145396e-06
0.000161897197
2.24694794e-06
0.000161172298
3.00289487e-06
0.000160252251
3.73798597e-06
0.000159142434
4.45108722e-06
0.000157848491
5.14125586e-06
0.000156376283
5.80775736e-06
0.000154731829
6.45007951e-06
0.000152921247
7.0679473e-06
0.000150950689
7.6613346e-06
0.000148826281
8.23047609e-06
0.000146554044
8.77587695e-06
0.000144139835
9.29832137e-06
0.000141589265
9.79887919e-06
0.00013890763
1.02789094e-05
0.000136099834
1.07400631e-05
0.00013317032
1.11842812e-05
0.000130122991
1.16137894e-05
0.000126961146
1.20310898e-05
0.000123687407
1.24389456e-05
0.000120303665
1.28403613e-05
0.00011681102
1.32385554e-05
0.000113209739
1.36369245e-05
0.000109499222
1.40389992e-05
0.00010567798
1.44483869e-05
0.000101743636
1.48687034e-05
9.76929425e-05
1.53034886e-05
9.35218263e-05
1.57561072e-05
8.92254603e-05
1.62296275e-05
8.47983724e-05
1.67266848e-05
8.02345926e-05
1.72493172e-05
7.55278443e-05
1.77987855e-05
7.06717854e-05
1.83753679e-05
6.56603023e-05
1.8978141e-05
6.04878591e-05
1.96047487e-05
5.51499013e-05
2.02511783e-05
4.96433096e-05
2.09115525e-05
4.39668913e-05
2.1577976e-05
3.81218925e-05
2.22404588e-05
3.21125002e-05
2.28869711e-05
2.59462969e-05
2.35036505e-05
1.96346158e-05
2.40752446e-05
1.31927496e-05
2.45856561e-05
6.63993718e-06
2.50189735e-05
2.535961e-05
-8.07848251e-10
1.84296082e-07
-4.54030961e-07
7.24196839e-07
-1.63515185e-06
1.61520004e-06
-3.01757771e-06
2.85507628e-06
-4.53295822e-06
4.44159621e-06
-6.12596031e-06
6.37118987e-06
-7.75180268e-06
8.63820429e-06
-9.3747599e-06
1.12345883e-05
-1.09668524e-05
1.41498666e-05
-1.25065272e-05
1.73712926e-05
-1.39774594e-05
2.08840977e-05
-1.53675116e-05
2.46717836e-05
-1.66678667e-05
2.87164203e-05
-1.78723053e-05
3.29989297e-05
-1.89766344e-05
3.74993437e-05
-1.99782228e-05
4.21970337e-05
-2.08756497e-05
4.7070909e-05
-2.16684241e-05
5.20995887e-05
-2.23567751e-05
5.72615495e-05
-2.2941498e-05
6.25352515e-05
-2.34238291e-05
6.78992481e-05
-2.3805367e-05
7.33322805e-05
-2.40880045e-05
7.88133607e-05
-2.42738845e-05
8.43218455e-05
-2.43653696e-05
8.98375019e-05
-2.43650152e-05
9.53405673e-05
-2.42755563e-05
0.000100811803
-2.40998931e-05
0.000106232546
-2.38410812e-05
0.000111584752
-2.35023224e-05
0.000116851041
-2.30869586e-05
0.000122014734
-2.25984628e-05
0.00012705989
-2.20404316e-05
0.000131971341
-2.14165765e-05
0.00013673472
-2.07307135e-05
0.000141336491
-1.99867557e-05
0.000145763971
-1.91886993e-05
0.000150005351
-1.8340615e-05
0.000154049719
-1.74466339e-05
0.000157887071
-1.6510936e-05
0.000161508323
-1.55377361e-05
0.000164905325
-1.45312707e-05
0.000168070858
-1.34957826e-05
0.000170998644
-1.24355074e-05
0.000173683341
-1.13546571e-05
0.000176120538
-1.02574042e-05
0.000178306743
-9.14786564e-06
0.000180239376
-8.03008401e-06
0.000181916746
-6.90800926e-06
0.000183338031
-5.7854773e-06
0.000184503249
-4.66618688e-06
0.00018541323
-3.55367164e-06
0.000186069571
-2.45126818e-06
0.000186474602
-1.36207399e-06
0.000186631326
-2.88902105e-07
0.000186543378
7.65820187e-07
0.000186214922
1.79990964e-06
0.000185650629
2.81124065e-06
0.000184855637
3.79788719e-06
0.000183835505
4.75811759e-06
0.000182596168
5.69042428e-06
0.000181143879
6.59354535e-06
0.00017948515
7.46648616e-06
0.000177626692
8.30853745e-06
0.000175575345
9.11929447e-06
0.000173338007
9.89867224e-06
0.000170921563
1.0646921e-05
0.000168332801
1.13646386e-05
0.00016557834
1.20527821e-05
0.000162664543
1.27126759e-05
0.000159597436
1.33460166e-05
0.000156382623
1.39548767e-05
0.000153025202
1.45417021e-05
0.000149529686
1.51093049e-05
0.000145899923
1.56608532e-05
0.000142139017
1.6199851e-05
0.000138249266
1.6730113e-05
0.000134232092
1.72557288e-05
0.000130087999
1.77810178e-05
0.000125816527
1.83104709e-05
0.000121416236
1.88486784e-05
0.000116884697
1.94002425e-05
0.000112218517
1.9969668e-05
0.000107413388
2.0561237e-05
0.000102464161
2.11788539e-05
9.73649749e-05
2.18258713e-05
9.21094097e-05
2.25048824e-05
8.66907036e-05
2.32174917e-05
8.11020163e-05
2.39640552e-05
7.53367532e-05
2.4743404e-05
6.93889505e-05
2.55525515e-05
6.32537194e-05
2.63864094e-05
5.69277473e-05
2.72375247e-05
5.0409841e-05
2.80958823e-05
4.37014956e-05
2.89488042e-05
3.68074556e-05
2.97810111e-05
2.97362274e-05
3.05748787e-05
2.2500488e-05
3.1310984e-05
1.51173311e-05
3.1968813e-05
7.60827493e-06
3.25280297e-05
3.29688126e-05
-9.27638048e-10
2.22484547e-07
-6.7651551e-07
8.65991654e-07
-2.27865896e-06
1.91686133e-06
-4.06844739e-06
3.36512527e-06
-5.98122216e-06
5.20231512e-06
-7.96315016e-06
7.42000155e-06
-9.96948911e-06
1.00088373e-05
-1.19635957e-05
1.29579927e-05
-1.39160078e-05
1.62548868e-05
-1.58034213e-05
1.98851258e-05
-1.76076984e-05
2.38325765e-05
-1.93149623e-05
2.80795225e-05
-2.09148128e-05
3.26068615e-05
-2.23996443e-05
3.73943206e-05
-2.37640934e-05
4.24206692e-05
-2.50045714e-05
4.76639232e-05
-2.61189037e-05
5.31015323e-05
-2.71060331e-05
5.87105497e-05
-2.79657925e-05
6.44677858e-05
-2.86987341e-05
7.03499428e-05
-2.93059861e-05
7.63337371e-05
-2.97891613e-05
8.2396007e-05
-3.01502744e-05
8.85138098e-05
-3.03916873e-05
9.46645095e-05
-3.05160693e-05
0.000100825855
-3.05263611e-05
0.000106976055
-3.04257558e-05
0.000113093839
-3.02176774e-05
0.000119158524
-2.99057665e-05
0.000125150067
-2.94938655e-05
0.000131049118
-2.89860089e-05
0.000136837065
-2.83864101e-05
0.000142496084
-2.76994502e-05
0.000148009172
-2.69296653e-05
0.000153360192
-2.60817327e-05
0.000158533897
-2.51604608e-05
0.000163515968
-2.41707703e-05
0.000168293035
-2.31176829e-05
0.000172852705
-2.20063038e-05
0.000177183576
-2.08418061e-05
0.000181275253
-1.96294134e-05
0.000185118365
-1.83743826e-05
0.000188704567
-1.70819855e-05
0.00019202655
-1.57574902e-05
0.000195078036
-1.44061423e-05
0.000197853775
-1.30331431e-05
0.000200349539
-1.16436303e-05
0.00020256211
-1.02426545e-05
0.000204489256
-8.83515574e-06
0.000206129717
-7.42593768e-06
0.000207483168
-6.01963878e-06
0.000208550196
-4.62069892e-06
0.00020933225
-3.233322e-06
0.000209831604
-1.8614283e-06
0.000210051306
-5.08603774e-07
0.000209995122
8.22003309e-07
0.00020966744
2.12759194e-06
0.000209073221
3.40545964e-06
0.000208217966
4.65314258e-06
0.000207107662
5.86842129e-06
0.000205748732
7.0493547e-06
0.000204147969
8.19430753e-06
0.000202312479
9.30197675e-06
0.000200249602
1.03714142e-05
0.000197966846
1.14020505e-05
0.000195471804
1.23937143e-05
0.000192772074
1.33466513e-05
0.000189875172
1.42615407e-05
0.000186788445
1.51395089e-05
0.00018351898
1.59821404e-05
0.000180073513
1.67914838e-05
0.000176458333
1.75700566e-05
0.000172679193
1.83208419e-05
0.000168741218
1.90472798e-05
0.000164648817
1.97532543e-05
0.0001604056
2.04430686e-05
0.000156014299
2.11214132e-05
0.000151476706
2.17933219e-05
0.000146793609
2.24641148e-05
0.000141964753
2.31393267e-05
0.000136988815
2.38246168e-05
0.000131863397
2.45256605e-05
0.000126585051
2.5248014e-05
0.000121149328
2.59969597e-05
0.000115550868
2.67773145e-05
0.000109783523
2.75932156e-05
0.000103840541
2.84478651e-05
9.77147842e-05
2.93432482e-05
9.13990241e-05
3.02798152e-05
8.48862867e-05
3.12561414e-05
7.81702694e-05
3.22685688e-05
7.12458219e-05
3.33108569e-05
6.41094883e-05
3.43738582e-05
5.6760098e-05
3.54452725e-05
4.91993862e-05
3.6509516e-05
4.1432611e-05
3.75477864e-05
3.34691241e-05
3.85383655e-05
2.53228345e-05
3.94572737e-05
1.70124987e-05
4.02791488e-05
8.56176044e-06
4.09787679e-05
4.15316192e-05
-1.04616823e-09
2.58706381e-07
-9.35221893e-07
1.00188526e-06
-3.02183784e-06
2.20800482e-06
-5.27456696e-06
3.86006506e-06
-7.63328241e-06
5.94361988e-06
-1.0046705e-05
8.44533778e-06
-1.2471207e-05
1.13519561e-05
-1.4870214e-05
1.46495663e-05
-1.72136181e-05
1.83231731e-05
-1.94770281e-05
2.23564633e-05
-2.16409885e-05
2.67317271e-05
-2.36902262e-05
3.14298877e-05
-2.56129733e-05
3.6430597e-05
-2.74003536e-05
4.17123755e-05
-2.9045872e-05
4.72527712e-05
-3.05449671e-05
5.3028527e-05
-3.18946596e-05
5.90157474e-05
-3.30932535e-05
6.51900567e-05
-3.41401018e-05
7.15267502e-05
-3.50354276e-05
7.80009325e-05
-3.57801683e-05
8.45876459e-05
-3.63758747e-05
9.12619884e-05
-3.68246169e-05
9.7999221e-05
-3.71289199e-05
0.000104774867
-3.72917157e-05
0.000111564804
-3.73162977e-05
0.000118345344
-3.72062961e-05
0.000125093316
-3.69656489e-05
0.000131786131
-3.65985817e-05
0.000138401854
-3.61095881e-05
0.000144919259
-3.55034144e-05
0.000151317891
-3.47850422e-05
0.000157578114
-3.39596724e-05
0.000163681157
-3.30327088e-05
0.000169609164
-3.20097395e-05
0.000175345226
-3.08965232e-05
0.000180873422
-2.96989663e-05
0.000186178847
-2.84231076e-05
0.00019124764
-2.7075097e-05
0.00019606701
-2.56611756e-05
0.00020062525
-2.41876541e-05
0.00020491176
-2.26608923e-05
0.00020891705
-2.10872757e-05
0.000212632753
-1.94731927e-05
0.000216051622
-1.78250119e-05
0.000219167534
-1.61490548e-05
0.000221975477
-1.4451573e-05
0.000224471541
-1.27387186e-05
0.000226652901
-1.10165163e-05
0.000228517796
-9.29083196e-06
0.000230065495
-7.56733809e-06
0.000231296271
-5.85147481e-06
0.000232211356
-4.14840676e-06
0.000232812897
-2.4629701e-06
0.00023310391
-7.99616611e-07
0.000233088223
8.37690956e-07
0.000232770366
2.44544905e-06
0.000232155521
4.02030416e-06
0.000231249481
5.55918229e-06
0.000230058593
7.05930942e-06
0.000228589699