/*--------------------------------*- C++ -*----------------------------------*\
| =========                 |                                                 |
| \\      /  F ield         | OpenFOAM Extend Project: Open source CFD        |
|  \\    /   O peration     | Version:  1.6-ext                               |
|   \\  /    A nd           | Web:      www.extend-project.de                 |
|    \\/     M anipulation  |                                                 |
\*---------------------------------------------------------------------------*/
FoamFile
{
    version     2.0;
    format      ascii;
    class       volScalarField;
    location    "4000";
    object      prec6_adj;
}
// * * * * * * * * * * * * * * * * * * * * * * * * * * * * * * * * * * * * * //

dimensions      [0 -2 -1 0 0 0 0];

internalField   nonuniform List<scalar> 
40000
(
2.06653731e+16
2.44133977e+16
2.81871792e+16
3.19961204e+16
3.58452688e+16
3.9741052e+16
4.3666617e+16
4.7627875e+16
5.16240719e+16
5.5654375e+16
5.97179047e+16
6.38137542e+16
6.79409997e+16
7.20987077e+16
7.62859377e+16
8.05017447e+16
8.47451789e+16
8.90152861e+16
9.33111066e+16
9.76316743e+16
1.01976016e+17
1.06343149e+17
1.10732082e+17
1.15141811e+17
1.19571322e+17
1.24019586e+17
1.2848556e+17
1.32968186e+17
1.37466389e+17
1.41979075e+17
1.46505135e+17
1.51043437e+17
1.5559283e+17
1.60152141e+17
1.64720175e+17
1.69295711e+17
1.73877505e+17
1.78464287e+17
1.83054759e+17
1.87647592e+17
1.92241432e+17
1.96834891e+17
2.01426547e+17
2.06014946e+17
2.10598598e+17
2.15175977e+17
2.19745516e+17
2.24305613e+17
2.28854628e+17
2.33390901e+17
2.37912828e+17
2.4241915e+17
2.46910168e+17
2.51392706e+17
2.558591e+17
2.60301256e+17
2.64717051e+17
2.69104301e+17
2.73460764e+17
2.77784141e+17
2.82072072e+17
2.86322133e+17
2.90531843e+17
2.94698653e+17
2.9881995e+17
3.02893054e+17
3.06915217e+17
3.10883618e+17
3.14795367e+17
3.18647497e+17
3.22436966e+17
3.26160652e+17
3.29815354e+17
3.33397786e+17
3.36904579e+17
3.40332274e+17
3.43677323e+17
3.46936084e+17
3.50104817e+17
3.53179686e+17
3.5615675e+17
3.59031959e+17
3.61801155e+17
3.64460063e+17
3.67004288e+17
3.69429309e+17
3.71730472e+17
3.7390299e+17
3.75941929e+17
3.77842214e+17
3.79598614e+17
3.81205752e+17
3.82658097e+17
3.8394998e+17
3.85075599e+17
3.86029041e+17
3.86804311e+17
3.8739534e+17
3.87796067e+17
3.88000311e+17
2.44201312e+16
2.88778641e+16
3.33652694e+16
3.79217486e+16
4.25226982e+16
4.71734222e+16
5.18758737e+16
5.66296409e+16
6.14337837e+16
6.62870217e+16
7.11878496e+16
7.61346154e+16
8.11255726e+16
8.61589157e+16
9.12328048e+16
9.63453818e+16
1.01494782e+17
1.06679141e+17
1.11896601e+17
1.17145314e+17
1.22423441e+17
1.2772916e+17
1.33060658e+17
1.38416139e+17
1.43793819e+17
1.49191928e+17
1.5460871e+17
1.6004242e+17
1.65491327e+17
1.70953709e+17
1.76427855e+17
1.81912063e+17
1.8740464e+17
1.92903898e+17
1.98408155e+17
2.03915731e+17
2.09424949e+17
2.14934131e+17
2.20441598e+17
2.25945666e+17
2.31444642e+17
2.36936829e+17
2.42420518e+17
2.47893991e+17
2.53355521e+17
2.58803381e+17
2.64235861e+17
2.69651303e+17
2.75048181e+17
2.80425267e+17
2.85781968e+17
2.91119036e+17
2.96440043e+17
3.01754471e+17
3.070575e+17
3.12326453e+17
3.17558909e+17
3.22752393e+17
3.27904381e+17
3.330123e+17
3.38073525e+17
3.43085376e+17
3.48045122e+17
3.52949972e+17
3.57797081e+17
3.62583539e+17
3.67306378e+17
3.71962561e+17
3.76548983e+17
3.8106247e+17
3.85499772e+17
3.8985756e+17
3.94132427e+17
3.98320877e+17
4.02419327e+17
4.06424098e+17
4.10331413e+17
4.14137388e+17
4.17838028e+17
4.21429218e+17
4.24906716e+17
4.28266142e+17
4.31502968e+17
4.34612505e+17
4.37589886e+17
4.40430055e+17
4.43127746e+17
4.45677463e+17
4.48073461e+17
4.50309729e+17
4.52379968e+17
4.5427758e+17
4.55995664e+17
4.57527019e+17
4.58864165e+17
4.59999386e+17
4.60924793e+17
4.61632368e+17
4.62114137e+17
4.62361942e+17
2.8203099e+16
3.33794186e+16
3.86236808e+16
4.39135766e+16
4.92634593e+16
5.46768154e+16
6.01555263e+16
6.5700182e+16
7.13104027e+16
7.69850917e+16
8.27226294e+16
8.85210179e+16
9.437799e+16
1.00291089e+17
1.06257727e+17
1.12275233e+17
1.18340882e+17
1.24451919e+17
1.30605581e+17
1.36799109e+17
1.43029757e+17
1.492948e+17
1.55591538e+17
1.61917304e+17
1.68269462e+17
1.74645413e+17
1.8104259e+17
1.87458466e+17
1.93890551e+17
2.00336388e+17
2.06793558e+17
2.13259678e+17
2.19732396e+17
2.26209394e+17
2.32688382e+17
2.39167103e+17
2.45643324e+17
2.52114838e+17
2.58579461e+17
2.65035034e+17
2.71479418e+17
2.779105e+17
2.84326195e+17
2.90724454e+17
2.97103282e+17
3.03460767e+17
3.09795125e+17
3.16104785e+17
3.22388524e+17
3.28645695e+17
3.34876611e+17
3.4108318e+17
3.47269985e+17
3.53446108e+17
3.59613669e+17
3.65735697e+17
3.71809426e+17
3.77832059e+17
3.83800768e+17
3.89712694e+17
3.95564946e+17
4.01354604e+17
4.07078713e+17
4.12734283e+17
4.18318289e+17
4.23827663e+17
4.29259299e+17
4.34610041e+17
4.39876686e+17
4.45055976e+17
4.50144595e+17
4.55139161e+17
4.60036226e+17
4.6483226e+17
4.69523653e+17
4.741067e+17
4.78577595e+17
4.82932415e+17
4.87167111e+17
4.91277493e+17
4.9525921e+17
4.9910773e+17
5.02818318e+17
5.06386011e+17
5.09805581e+17
5.13071508e+17
5.16177937e+17
5.19118639e+17
5.21886967e+17
5.24475816e+17
5.26877583e+17
5.29084137e+17
5.31086804e+17
5.32876377e+17
5.34443153e+17
5.35777003e+17
5.36867504e+17
5.37704042e+17
5.38276096e+17
5.38572989e+17
3.20178461e+16
3.79432037e+16
4.39211061e+16
4.99590483e+16
5.60654838e+16
6.22457515e+16
6.85034785e+16
7.48407109e+16
8.12581473e+16
8.77553881e+16
9.43311629e+16
1.00983525e+17
1.0771001e+17
1.14507766e+17
1.21373656e+17
1.28304335e+17
1.35296317e+17
1.42346021e+17
1.49449811e+17
1.56604023e+17
1.63804991e+17
1.7104906e+17
1.783326e+17
1.8565202e+17
1.93003767e+17
2.00384339e+17
2.07790285e+17
2.15218208e+17
2.22664764e+17
2.30126669e+17
2.37600693e+17
2.45083664e+17
2.52572465e+17
2.60064033e+17
2.67555362e+17
2.75043496e+17
2.82525535e+17
2.89998629e+17
2.97459986e+17
3.04906867e+17
3.12336593e+17
3.19746557e+17
3.2713423e+17
3.34497184e+17
3.41833118e+17
3.4913991e+17
3.56415674e+17
3.63658868e+17
3.70868444e+17
3.78044066e+17
3.85186455e+17
3.92297898e+17
3.99383013e+17
4.06449932e+17
4.13509782e+17
4.20511119e+17
4.27450798e+17
4.34325671e+17
4.41132592e+17
4.47868413e+17
4.54529988e+17
4.61114174e+17
4.67617826e+17
4.74037801e+17
4.80370951e+17
4.86614125e+17
4.9276416e+17
4.98817882e+17
5.04772097e+17
5.10623588e+17
5.16369103e+17
5.22005354e+17
5.27529004e+17
5.32936654e+17
5.38224836e+17
5.43389992e+17
5.48428466e+17
5.53336474e+17
5.5811009e+17
5.62745219e+17
5.6723756e+17
5.71582579e+17
5.75775463e+17
5.79811078e+17
5.83683912e+17
5.8738802e+17
5.90916956e+17
5.94263708e+17
5.97420622e+17
6.00379333e+17
6.03130705e+17
6.05664775e+17
6.07970734e+17
6.10036936e+17
6.11850964e+17
6.13399743e+17
6.14669748e+17
6.15647195e+17
6.16318467e+17
6.16669887e+17
3.5866456e+16
4.25340773e+16
4.92575044e+16
5.60502243e+16
6.29197153e+16
6.9872595e+16
7.69140855e+16
8.40478079e+16
9.127582e+16
9.85987731e+16
1.06016114e+17
1.13526295e+17
1.21126961e+17
1.28815127e+17
1.36587315e+17
1.44439679e+17
1.52368097e+17
1.60368255e+17
1.68435705e+17
1.76565918e+17
1.8475432e+17
1.92996323e+17
2.01287349e+17
2.09622846e+17
2.17998302e+17
2.26409257e+17
2.34851306e+17
2.43320109e+17
2.51811393e+17
2.60320953e+17
2.68844659e+17
2.77378452e+17
2.85918346e+17
2.94460434e+17
3.03000882e+17
3.11535935e+17
3.20061917e+17
3.28575236e+17
3.37072387e+17
3.45549957e+17
3.54004638e+17
3.6243324e+17
3.70832708e+17
3.79200149e+17
3.87532874e+17
3.95828447e+17
4.04084758e+17
4.12300128e+17
4.20473456e+17
4.28604413e+17
4.36693736e+17
4.44743624e+17
4.52758318e+17
4.60744914e+17
4.68724836e+17
4.76631866e+17
4.84462446e+17
4.92213064e+17
4.99880244e+17
5.0746055e+17
5.14950596e+17
5.22347036e+17
5.29646575e+17
5.36845959e+17
5.4394198e+17
5.50931469e+17
5.5781129e+17
5.64578341e+17
5.71229541e+17
5.77761823e+17
5.84172128e+17
5.9045739e+17
5.9661452e+17
6.02640398e+17
6.08531845e+17
6.14285607e+17
6.1989833e+17
6.25366523e+17
6.30686535e+17
6.35854503e+17
6.40866314e+17
6.45717547e+17
6.50403411e+17
6.5491868e+17
6.59257606e+17
6.63413837e+17
6.67380317e+17
6.71149186e+17
6.74711672e+17
6.78057992e+17
6.81177255e+17
6.84057397e+17
6.86685141e+17
6.8904602e+17
6.91124463e+17
6.92903977e+17
6.94367424e+17
6.95497346e+17
6.96276527e+17
6.9668786e+17
3.97514866e+16
4.71521639e+16
5.4626235e+16
6.2179075e+16
6.98176578e+16
7.75492004e+16
8.53801508e+16
9.33155985e+16
1.01359042e+17
1.09512382e+17
1.17776039e+17
1.26149135e+17
1.34629693e+17
1.43214832e+17
1.51900944e+17
1.60683855e+17
1.69558951e+17
1.78521295e+17
1.87565711e+17
1.96686863e+17
2.05879305e+17
2.15137533e+17
2.24456019e+17
2.33829235e+17
2.43251681e+17
2.52717894e+17
2.62222468e+17
2.71760056e+17
2.81325383e+17
2.90913251e+17
3.00518541e+17
3.10136221e+17
3.19761346e+17
3.29389064e+17
3.3901462e+17
3.48633357e+17
3.58240728e+17
3.67832295e+17
3.77403743e+17
3.8695089e+17
3.96469699e+17
4.059563e+17
4.15407012e+17
4.24818378e+17
4.34187204e+17
4.43510621e+17
4.52786155e+17
4.62011832e+17
4.71186308e+17
4.80309054e+17
4.89380596e+17
4.98402848e+17
5.07379559e+17
5.16316925e+17
5.25235618e+17
5.34075066e+17
5.4282199e+17
5.51472493e+17
5.60022763e+17
5.68469086e+17
5.76807842e+17
5.85035514e+17
5.93148684e+17
6.01144036e+17
6.09018351e+17
6.16768509e+17
6.24391475e+17
6.31884301e+17
6.3924411e+17
6.46468092e+17
6.53553482e+17
6.60497553e+17
6.67297591e+17
6.73950876e+17
6.80454651e+17
6.86806097e+17
6.93002293e+17
6.99040173e+17
7.0491648e+17
7.10627707e+17
7.16170032e+17
7.21539242e+17
7.26730646e+17
7.31738978e+17
7.36558287e+17
7.41181814e+17
7.45601863e+17
7.49809658e+17
7.53795204e+17
7.57547143e+17
7.61052637e+17
7.64297269e+17
7.67265004e+17
7.69938207e+17
7.72297773e+17
7.7432336e+17
7.7599377e+17
7.77287404e+17
7.78182989e+17
7.78659576e+17
4.36572059e+16
5.17959709e+16
6.00224315e+16
6.83391767e+16
7.67519216e+16
8.52678343e+16
9.38941384e+16
1.02637151e+17
1.11501747e+17
1.20491144e+17
1.29606885e+17
1.38848957e+17
1.48215966e+17
1.57705341e+17
1.67313536e+17
1.77036215e+17
1.86868419e+17
1.96804705e+17
2.06839267e+17
2.1696603e+17
2.27178731e+17
2.37470981e+17
2.47836314e+17
2.58268227e+17
2.68760213e+17
2.79305781e+17
2.89898478e+17
3.00531903e+17
3.1119972e+17
3.21895668e+17
3.32613567e+17
3.43347331e+17
3.54090971e+17
3.64838601e+17
3.75584452e+17
3.86322873e+17
3.97048345e+17
4.07755488e+17
4.18439079e+17
4.2909406e+17
4.39715565e+17
4.50298937e+17
4.60839759e+17
4.7133389e+17
4.81777514e+17
4.92167194e+17
5.02499951e+17
5.12773357e+17
5.22985665e+17
5.33135966e+17
5.43224406e+17
5.53252462e+17
5.63223309e+17
5.73142306e+17
5.83017637e+17
5.92816757e+17
6.02506139e+17
6.12081491e+17
6.21538662e+17
6.30873657e+17
6.4008264e+17
6.4916194e+17
6.58108048e+17
6.66917622e+17
6.75587484e+17
6.84114613e+17
6.92496143e+17
7.0072935e+17
7.08811645e+17
7.16740554e+17
7.24513708e+17
7.32128815e+17
7.39583639e+17
7.46875969e+17
7.54003581e+17
7.609642e+17
7.6775545e+17
7.74374796e+17
7.8081948e+17
7.87086444e+17
7.93172244e+17
7.99072946e+17
8.04784016e+17
8.10300191e+17
8.1561533e+17
8.20722264e+17
8.25612618e+17
8.30276635e+17
8.34702993e+17
8.38878626e+17
8.42788568e+17
8.46415839e+17
8.49741379e+17
8.52744091e+17
8.55400992e+17
8.57687514e+17
8.59577993e+17
8.6104626e+17
8.62066557e+17
8.6261369e+17
4.75889326e+16
5.64635926e+16
6.54426315e+16
7.45255772e+16
8.37163796e+16
9.30216223e+16
1.02448862e+17
1.12005344e+17
1.21697167e+17
1.31528832e+17
1.41503064e+17
1.51620831e+17
1.61881473e+17
1.72282892e+17
1.82821764e+17
1.93493746e+17
2.04293668e+17
2.15215702e+17
2.26253507e+17
2.37400354e+17
2.48649219e+17
2.59992871e+17
2.71423931e+17
2.82934932e+17
2.94518352e+17
3.06166654e+17
3.1787231e+17
3.29627822e+17
3.41425743e+17
3.53258688e+17
3.65119351e+17
3.77000516e+17
3.8889507e+17
4.00796011e+17
4.12696462e+17
4.24589686e+17
4.36469092e+17
4.48328257e+17
4.6016094e+17
4.71961101e+17
4.83722923e+17
4.95440843e+17
5.0710958e+17
5.18724176e+17
5.30280045e+17
5.41773031e+17
5.53199481e+17
5.6455634e+17
5.75841265e+17
5.8705277e+17
5.98190418e+17
6.09255056e+17
6.20249123e+17
6.31177043e+17
6.42045741e+17
6.52832452e+17
6.63491223e+17
6.74017347e+17
6.84406331e+17
6.94653899e+17
7.04756006e+17
7.14708842e+17
7.24508832e+17
7.34152639e+17
7.43637162e+17
7.52959528e+17
7.62117091e+17
7.71107412e+17
7.79928254e+17
7.88577557e+17
7.97053421e+17
8.05354076e+17
8.13477849e+17
8.21423126e+17
8.29188309e+17
8.36771759e+17
8.44171735e+17
8.51386319e+17
8.58413337e+17
8.65250256e+17
8.71894076e+17
8.78341201e+17
8.84587296e+17
8.90627126e+17
8.96454372e+17
9.02061438e+17
9.07439238e+17
9.12576971e+17
9.17461897e+17
9.22079122e+17
9.26411402e+17
9.30439002e+17
9.34139622e+17
9.37488438e+17
9.40458293e+17
9.43020062e+17
9.45143242e+17
9.46796705e+17
9.479498e+17
9.48572694e+17
5.15461639e+16
6.11537897e+16
7.08844178e+16
8.07345486e+16
9.07061009e+16
1.00804688e+17
1.11037817e+17
1.21413361e+17
1.31938443e+17
1.42618752e+17
1.53458185e+17
1.64458742e+17
1.75620592e+17
1.8694223e+17
1.98420684e+17
2.10051732e+17
2.21830116e+17
2.33749733e+17
2.45803807e+17
2.5798503e+17
2.70285685e+17
2.82697745e+17
2.95212953e+17
3.07822889e+17
3.20519026e+17
3.33292767e+17
3.46135487e+17
3.59038558e+17
3.71993378e+17
3.84991388e+17
3.98024095e+17
4.11083085e+17
4.24160047e+17
4.37246782e+17
4.50335223e+17
4.6341745e+17
4.76485711e+17
4.8953244e+17
5.02550274e+17
5.15532084e+17
5.28470997e+17
5.41360428e+17
5.54194116e+17
5.66966165e+17
5.79671097e+17
5.92303909e+17
6.04860148e+17
6.17335997e+17
6.29728388e+17
6.42035133e+17
6.54255092e+17
6.66388386e+17
6.78436654e+17
6.9040339e+17
7.02294359e+17
7.14097332e+17
7.25753309e+17
7.37257154e+17
7.48604016e+17
7.59789337e+17
7.70808865e+17
7.8165866e+17
7.92335096e+17
8.02834863e+17
8.13154965e+17
8.23292715e+17
8.33245724e+17
8.43011889e+17
8.52589377e+17
8.619766e+17
8.71172189e+17
8.80174962e+17
8.8898388e+17
8.97598001e+17
9.06016423e+17
9.14238218e+17
9.22262351e+17
9.30087596e+17
9.37712423e+17
9.45134887e+17
9.52352484e+17
9.59361999e+17
9.66159328e+17
9.72739282e+17
9.79095366e+17
9.85219545e+17
9.91101987e+17
9.96730793e+17
1.00209173e+18
1.00716798e+18
1.01193989e+18
1.01638481e+18
1.02047702e+18
1.02418775e+18
1.02748541e+18
1.03033603e+18
1.03270395e+18
1.03455271e+18
1.03584639e+18
1.03655011e+18
5.55285041e+16
6.5865764e+16
7.63461317e+16
8.69633349e+16
9.77172005e+16
1.08612135e+17
1.19655309e+17
1.30854946e+17
1.42218992e+17
1.53754192e+17
1.65465555e+17
1.7735612e+17
1.89426931e+17
2.01677154e+17
2.14104264e+17
2.26704265e+17
2.39471915e+17
2.52400937e+17
2.65484203e+17
2.78713909e+17
2.92081705e+17
3.05578819e+17
3.1919615e+17
3.32924351e+17
3.46753894e+17
3.6067512e+17
3.74678291e+17
3.88753624e+17
4.02891323e+17
4.17081612e+17
4.31314754e+17
4.4558108e+17
4.5987101e+17
4.74175074e+17
4.88483933e+17
5.02788406e+17
5.17079486e+17
5.31348368e+17
5.45586476e+17
5.59785489e+17
5.73937372e+17
5.88034414e+17
6.02069264e+17
6.16034979e+17
6.29925074e+17
6.43733586e+17
6.57455145e+17
6.7108506e+17
6.84619425e+17
6.98055241e+17
7.11390574e+17
7.2462474e+17
7.37758535e+17
7.50794524e+17
7.63737392e+17
7.76586055e+17
7.89267935e+17
8.01777449e+17
8.14109371e+17
8.2625885e+17
8.38221423e+17
8.49993022e+17
8.61569975e+17
8.72949014e+17
8.84127266e+17
8.95102251e+17
9.0587187e+17
9.16434389e+17
9.26788418e+17
9.36932884e+17
9.46866999e+17
9.56590219e+17
9.66102193e+17
9.75402707e+17
9.84491614e+17
9.93368752e+17
1.00203385e+18
1.01048643e+18
1.01872565e+18
1.02675021e+18
1.03455813e+18
1.04214662e+18
1.04951181e+18
1.0566486e+18
1.06355029e+18
1.07020841e+18
1.07661235e+18
1.08274907e+18
1.08860279e+18
1.09415467e+18
1.09938257e+18
1.10426079e+18
1.10876005e+18
1.11284745e+18
1.11648677e+18
1.11963894e+18
1.12226284e+18
1.12431639e+18
1.125758e+18
1.1265474e+18
5.95356157e+16
7.0599004e+16
8.18266577e+16
9.32099336e+16
1.04746668e+17
1.16439967e+17
1.28296462e+17
1.4032452e+17
1.52532711e+17
1.64928699e+17
1.77518521e+17
1.90306219e+17
2.03293724e+17
2.16480916e+17
2.29865783e+17
2.43444635e+17
2.57212327e+17
2.7116249e+17
2.85287726e+17
2.99579802e+17
3.14029796e+17
3.28628239e+17
3.43365223e+17
3.58230496e+17
3.73213541e+17
3.8830364e+17
4.03489929e+17
4.1876145e+17
4.34107185e+17
4.49516097e+17
4.64977161e+17
4.80479396e+17
4.96011893e+17
5.11563843e+17
5.27124564e+17
5.42683531e+17
5.58230402e+17
5.73755049e+17
5.8924759e+17
6.0469842e+17
6.20098248e+17
6.35438137e+17
6.50709549e+17
6.6590439e+17
6.81015068e+17
6.96034556e+17
7.10956465e+17
7.25775129e+17
7.40485707e+17
7.550843e+17
7.69568097e+17
7.83935542e+17
7.98186546e+17
8.12322737e+17
8.26347772e+17
8.40272229e+17
8.54009498e+17
8.67553517e+17
8.80898665e+17
8.94039785e+17
9.06972189e+17
9.19691673e+17
9.3219452e+17
9.44477503e+17
9.56537884e+17
9.68373401e+17
9.79982263e+17
9.91363125e+17
1.00251507e+18
1.01343756e+18
1.02413044e+18
1.03459383e+18
1.0448281e+18
1.05483382e+18
1.06461162e+18
1.07416216e+18
1.08348598e+18
1.09258337e+18
1.10145425e+18
1.11009795e+18
1.11851308e+18
1.12669727e+18
1.13464695e+18
1.14235705e+18
1.14982072e+18
1.15702902e+18
1.16397055e+18
1.1706311e+18
1.17699329e+18
1.18303622e+18
1.18873515e+18
1.1940613e+18
1.19898168e+18
1.20345915e+18
1.20745268e+18
1.21091791e+18
1.21380804e+18
1.21607503e+18
1.21767134e+18
1.21855094e+18
6.35671881e+16
7.53531841e+16
8.7325268e+16
9.94729202e+16
1.11792212e+17
1.24284967e+17
1.36957183e+17
1.49817208e+17
1.62874082e+17
1.76136251e+17
1.89610684e+17
2.03302371e+17
2.17214116e+17
2.31346528e+17
2.45698145e+17
2.60265636e+17
2.7504402e+17
2.900269e+17
3.05206674e+17
3.2057474e+17
3.36121658e+17
3.51837305e+17
3.67711002e+17
3.83731614e+17
3.99887652e+17
4.16167339e+17
4.32558682e+17
4.49049527e+17
4.65627611e+17
4.82280604e+17
4.9899615e+17
5.15761909e+17
5.32565587e+17
5.49394976e+17
5.66237986e+17
5.83082678e+17
5.999173e+17
6.16730322e+17
6.33510475e+17
6.50246786e+17
6.66928621e+17
6.8354573e+17
7.00088294e+17
7.16546977e+17
7.32912989e+17
7.49178145e+17
7.65334945e+17
7.81376659e+17
7.97297421e+17
8.13092352e+17
8.28757687e+17
8.44290941e+17
8.59691095e+17
8.74958825e+17
8.90096777e+17
9.05127647e+17
9.19950391e+17
9.3455844e+17
9.48945751e+17
9.63106835e+17
9.77036762e+17
9.90731178e+17
1.00418631e+18
1.01739897e+18
1.03036655e+18
1.043087e+18
1.05555885e+18
1.06778117e+18
1.0797535e+18
1.09147588e+18
1.10294878e+18
1.11417303e+18
1.12514975e+18
1.13588029e+18
1.14636613e+18
1.15660875e+18
1.16660953e+18
1.17636957e+18
1.18588954e+18
1.19516947e+18
1.20420857e+18
1.2130049e+18
1.22155518e+18
1.22985441e+18
1.23789558e+18
1.24566927e+18
1.25316328e+18
1.26036222e+18
1.26724708e+18
1.27379486e+18
1.27997822e+18
1.2857652e+18
1.29111905e+18
1.2959983e+18
1.300357e+18
1.30414536e+18
1.30731068e+18
1.30979877e+18
1.3115558e+18
1.31252964e+18
6.76229199e+16
8.01280984e+16
9.28415109e+16
1.05751311e+17
1.18852118e+17
1.32144593e+17
1.4563408e+17
1.59328821e+17
1.73238203e+17
1.87371338e+17
2.01736032e+17
2.16338162e+17
2.31181366e+17
2.46266977e+17
2.61594102e+17
2.77159801e+17
2.929593e+17
3.08986225e+17
3.25232823e+17
3.41690171e+17
3.58348356e+17
3.75196642e+17
3.92223606e+17
4.09417259e+17
4.26765147e+17
4.44254442e+17
4.61872016e+17
4.7960451e+17
4.97438393e+17
5.15360014e+17
5.33355653e+17
5.51411566e+17
5.6951403e+17
5.87649384e+17
6.05804069e+17
6.23964673e+17
6.42117967e+17
6.60250949e+17
6.78350889e+17
6.9640537e+17
7.14402337e+17
7.32330145e+17
7.50177613e+17
7.67934081e+17
7.85589473e+17
8.03134363e+17
8.20560056e+17
8.37858672e+17
8.55023244e+17
8.72047831e+17
8.88927648e+17
9.05659218e+17
9.22240546e+17
9.38671331e+17
9.54953215e+17
9.71121384e+17
9.87060033e+17
1.00276205e+18
1.01822093e+18
1.03343083e+18
1.04838656e+18
1.06308358e+18
1.07751806e+18
1.09168681e+18
1.10558736e+18
1.11921787e+18
1.13257719e+18
1.14566475e+18
1.15848062e+18
1.17102539e+18
1.18330018e+18
1.19530651e+18
1.20704627e+18
1.21852164e+18
1.22973491e+18
1.24068843e+18
1.25138443e+18
1.26182483e+18
1.27201108e+18
1.28194393e+18
1.29162315e+18
1.3010473e+18
1.31021336e+18
1.31911644e+18
1.32774934e+18
1.33610219e+18
1.34416197e+18
1.35191211e+18
1.35933198e+18
1.36639647e+18
1.37307562e+18
1.37933427e+18
1.3851319e+18
1.39042266e+18
1.39515562e+18
1.39927546e+18
1.40272346e+18
1.40543907e+18
1.40736192e+18
1.40843349e+18
7.17025075e+16
8.49236157e+16
9.83751311e+16
1.12044458e+17
1.25925139e+17
1.40016867e+17
1.54324391e+17
1.68855811e+17
1.83620786e+17
1.98629003e+17
2.13889022e+17
2.29407536e+17
2.4518898e+17
2.61235385e+17
2.7754643e+17
2.94119579e+17
3.10950294e+17
3.2803226e+17
3.45357608e+17
3.62917134e+17
3.80700489e+17
3.98696356e+17
4.16892595e+17
4.35276379e+17
4.53834307e+17
4.72552502e+17
4.91416701e+17
5.10412329e+17
5.2952457e+17
5.48738431e+17
5.68038795e+17
5.87410483e+17
6.06838298e+17
6.26307082e+17
6.45801758e+17
6.65307383e+17
6.84809193e+17
7.04292654e+17
7.23743507e+17
7.43147825e+17
7.62492058e+17
7.81763094e+17
8.00948316e+17
8.20035661e+17
8.39013689e+17
8.57871655e+17
8.7659959e+17
8.95188385e+17
9.13629895e+17
9.31917046e+17
9.50043964e+17
9.68006118e+17
9.85800488e+17
1.00342576e+18
1.02088256e+18
1.03821888e+18
1.05530389e+18
1.07212987e+18
1.08868986e+18
1.10497761e+18
1.12098762e+18
1.13671516e+18
1.1521563e+18
1.16730785e+18
1.18216744e+18
1.19673343e+18
1.21100495e+18
1.22498185e+18
1.23866464e+18
1.2520545e+18
1.26515317e+18
1.27796288e+18
1.2904863e+18
1.3027264e+18
1.31468632e+18
1.32636928e+18
1.33777834e+18
1.34891627e+18
1.3597853e+18
1.37038687e+18
1.38072139e+18
1.39078786e+18
1.40058357e+18
1.41010371e+18
1.41934093e+18
1.42828489e+18
1.43692179e+18
1.44523388e+18
1.45319891e+18
1.4607897e+18
1.46797368e+18
1.47471252e+18
1.48096194e+18
1.48667171e+18
1.49178592e+18
1.49624367e+18
1.49998014e+18
1.50292829e+18
1.50502103e+18
1.50619316e+18
7.58056378e+16
8.97396489e+16
1.03926011e+17
1.18351966e+17
1.33010398e+17
1.47900284e+17
1.63025895e+17
1.78395211e+17
1.94018129e+17
2.09904846e+17
2.26064607e+17
2.42504865e+17
2.59230799e+17
2.76245116e+17
2.93548047e+17
3.11137468e+17
3.29009089e+17
3.47156671e+17
3.65572258e+17
3.84246394e+17
4.0316832e+17
4.2232616e+17
4.41707082e+17
4.61297436e+17
4.81082884e+17
5.01048507e+17
5.21178902e+17
5.41458275e+17
5.6187051e+17
5.82399251e+17
6.03027964e+17
6.2374e+17
6.44518657e+17
6.65347239e+17
6.86209106e+17
7.07087737e+17
7.27966782e+17
7.48830116e+17
7.69661895e+17
7.90446618e+17
8.11169178e+17
8.31814928e+17
8.52369743e+17
8.72820086e+17
8.93153083e+17
9.13356594e+17
9.334193e+17
9.53330792e+17
9.73081671e+17
9.9266366e+17
1.01206973e+18
1.03129423e+18
1.05033306e+18
1.06918386e+18
1.08784621e+18
1.10638114e+18
1.12464261e+18
1.14262229e+18
1.16031266e+18
1.17770705e+18
1.19479963e+18
1.21158544e+18
1.22806041e+18
1.24422133e+18
1.26006589e+18
1.27559264e+18
1.29080098e+18
1.30569111e+18
1.32026402e+18
1.33452142e+18
1.34846569e+18
1.36209974e+18
1.375427e+18
1.38845123e+18
1.40117642e+18
1.41360664e+18
1.42574579e+18
1.43759747e+18
1.4491647e+18
1.46044962e+18
1.47145324e+18
1.48217503e+18
1.4926126e+18
1.50276121e+18
1.51261338e+18
1.52215832e+18
1.53138147e+18
1.54026392e+18
1.54878186e+18
1.55690606e+18
1.56460139e+18
1.57182641e+18
1.57853314e+18
1.58466702e+18
1.5901672e+18
1.59496722e+18
1.59899614e+18
1.60218034e+18
1.60444587e+18
1.60572067e+18
7.99319836e+16
9.4576133e+16
1.09494128e+17
1.24673632e+17
1.40107314e+17
1.55793731e+17
1.7173684e+17
1.87944574e+17
2.04427068e+17
2.21194999e+17
2.38258248e+17
2.55624973e+17
2.73301057e+17
2.91289847e+17
3.09592109e+17
3.2820612e+17
3.47127838e+17
3.66351115e+17
3.8586792e+17
4.05668561e+17
4.25741889e+17
4.46075488e+17
4.66655848e+17
4.87468509e+17
5.08498206e+17
5.29728981e+17
5.51144295e+17
5.72727125e+17
5.94460053e+17
6.16325344e+17
6.38305031e+17
6.60380979e+17
6.82534957e+17
7.04748706e+17
7.27004001e+17
7.49282716e+17
7.71566886e+17
7.93838769e+17
8.16080911e+17
8.38276208e+17
8.60407971e+17
8.82459991e+17
9.04416613e+17
9.26262799e+17
9.47984211e+17
9.69567287e+17
9.90999326e+17
1.01226858e+18
1.03336437e+18
1.05427715e+18
1.07499869e+18
1.09552217e+18
1.11584236e+18
1.13595577e+18
1.15586087e+18
1.17556411e+18
1.19503145e+18
1.21419384e+18
1.23304322e+18
1.25157243e+18
1.26977527e+18
1.28764651e+18
1.30518191e+18
1.32237821e+18
1.33923313e+18
1.35574537e+18
1.37191455e+18
1.38774125e+18
1.40322686e+18
1.41837363e+18
1.43318451e+18
1.44766312e+18
1.4618136e+18
1.4756405e+18
1.48914862e+18
1.50234287e+18
1.51522798e+18
1.52780838e+18
1.54008783e+18
1.55206921e+18
1.56375409e+18
1.57514244e+18
1.58623216e+18
1.59701862e+18
1.6074942e+18
1.61764771e+18
1.62746385e+18
1.63692259e+18
1.64599861e+18
1.65466072e+18
1.66287128e+18
1.67058585e+18
1.67775283e+18
1.68431343e+18
1.69020196e+18
1.69534644e+18
1.69966988e+18
1.70309205e+18
1.70553207e+18
1.70691085e+18
8.40811992e+16
9.94330093e+16
1.15079522e+17
1.31009394e+17
1.47215538e+17
1.63696415e+17
1.80455874e+17
1.97501909e+17
2.14844934e+17
2.32496101e+17
2.50465897e+17
2.68763148e+17
2.87394402e+17
3.06363613e+17
3.25672059e+17
3.45318402e+17
3.65298843e+17
3.85607323e+17
4.06235742e+17
4.27174181e+17
4.48411111e+17
4.69933588e+17
4.91727433e+17
5.13777389e+17
5.36067266e+17
5.58580074e+17
5.81298135e+17
6.04203198e+17
6.27276531e+17
6.50499015e+17
6.73851231e+17
6.97313538e+17
7.20866151e+17
7.44489218e+17
7.68162887e+17
7.91867381e+17
8.15583065e+17
8.39290515e+17
8.62970591e+17
8.86604498e+17
9.10173866e+17
9.33660818e+17
9.57048045e+17
9.80318887e+17
1.00345741e+18
1.0264485e+18
1.04927796e+18
1.07193257e+18
1.09440026e+18
1.11667018e+18
1.13873282e+18
1.16058018e+18
1.18220591e+18
1.20360548e+18
1.22477637e+18
1.24571829e+18
1.26641981e+18
1.2867929e+18
1.30682887e+18
1.32652006e+18
1.34585985e+18
1.36484272e+18
1.3834642e+18
1.40172094e+18
1.41961067e+18
1.43713219e+18
1.45428533e+18
1.47107095e+18
1.48749088e+18
1.50354783e+18
1.51924533e+18
1.53458763e+18
1.54957958e+18
1.56422648e+18
1.57853393e+18
1.59250763e+18
1.60615315e+18
1.61947569e+18
1.63247978e+18
1.64516897e+18
1.65754544e+18
1.66960963e+18
1.68135972e+18
1.69279124e+18
1.70389642e+18
1.7146637e+18
1.72507707e+18
1.73511548e+18
1.74475216e+18
1.753954e+18
1.76268102e+18
1.77088586e+18
1.77851343e+18
1.78550087e+18
1.79177775e+18
1.79726673e+18
1.80188483e+18
1.80554528e+18
1.80816025e+18
1.80964354e+18
8.82529175e+16
1.04310212e+17
1.2068227e+17
1.37359293e+17
1.543349e+17
1.71607803e+17
1.89181979e+17
2.07065621e+17
2.25269496e+17
2.43805251e+17
2.62683972e+17
2.81915129e+17
3.01505904e+17
3.2146083e+17
3.41781671e+17
3.62467456e+17
3.83514614e+17
4.0491717e+17
4.2666695e+17
4.48753813e+17
4.71165852e+17
4.93889601e+17
5.16910218e+17
5.40211649e+17
5.63776787e+17
5.87587607e+17
6.11625296e+17
6.35870364e+17
6.60302761e+17
6.84901966e+17
7.09647091e+17
7.34516963e+17
7.59490215e+17
7.84545363e+17
8.0966089e+17
8.34815318e+17
8.59987294e+17
8.85155657e+17
9.10299522e+17
9.35398354e+17
9.60432048e+17
9.8538101e+17
1.01022624e+18
1.0349494e+18
1.05953295e+18
1.08396017e+18
1.10821534e+18
1.13228374e+18
1.15615188e+18
1.17980749e+18
1.20323975e+18
1.22643936e+18
1.24939874e+18
1.27211215e+18
1.29457593e+18
1.31678865e+18
1.33875123e+18
1.36036157e+18
1.38161033e+18
1.4024893e+18
1.4229914e+18
1.44311075e+18
1.46284265e+18
1.48218361e+18
1.50113131e+18
1.5196846e+18
1.53784352e+18
1.55560917e+18
1.57298373e+18
1.58997037e+18
1.60657315e+18
1.62279691e+18
1.63864718e+18
1.65412997e+18
1.66925164e+18
1.68401866e+18
1.69843739e+18
1.7125138e+18
1.72625314e+18
1.73965965e+18
1.75273607e+18
1.7654833e+18
1.77789986e+18
1.78998137e+18
1.80172e+18
1.81310384e+18
1.82411624e+18
1.83473516e+18
1.84493246e+18
1.85467329e+18
1.86391538e+18
1.87260861e+18
1.8806946e+18
1.88810655e+18
1.89476949e+18
1.90060089e+18
1.90551193e+18
1.9094094e+18
1.91219856e+18
1.91378609e+18
9.24467478e+16
1.0920766e+17
1.26302464e+17
1.43723441e+17
1.61465369e+17
1.79527573e+17
1.97914415e+17
2.16634456e+17
2.35698912e+17
2.5511997e+17
2.74909327e+17
2.95077088e+17
3.15631051e+17
3.36576302e+17
3.57915067e+17
3.79646721e+17
4.01767908e+17
4.2427272e+17
4.47152907e+17
4.70398094e+17
4.93995999e+17
5.17932631e+17
5.42192484e+17
5.6675871e+17
5.91613283e+17
6.1673714e+17
6.42110325e+17
6.67712106e+17
6.93521096e+17
7.19515362e+17
7.45672524e+17
7.71969856e+17
7.98384378e+17
8.24892946e+17
8.51472341e+17
8.78099354e+17
9.04750874e+17
9.3140397e+17
9.58035977e+17
9.84624582e+17
1.01114791e+18
1.0375846e+18
1.06391393e+18
1.09011585e+18
1.11617114e+18
1.14206144e+18
1.1677694e+18
1.19327878e+18
1.21857454e+18
1.24364297e+18
1.26847184e+18
1.29305048e+18
1.31737e+18
1.34142342e+18
1.36520585e+18
1.38871471e+18
1.41196347e+18
1.43483589e+18
1.45732194e+18
1.47941279e+18
1.50110088e+18
1.52237994e+18
1.54324499e+18
1.56369233e+18
1.58371957e+18
1.6033256e+18
1.62251055e+18
1.64127577e+18
1.65962373e+18
1.67755802e+18
1.69508317e+18
1.71220459e+18
1.72892841e+18
1.74526134e+18
1.76121044e+18
1.77678293e+18
1.7919859e+18
1.80682608e+18
1.82130941e+18
1.83544077e+18
1.84922348e+18
1.86265889e+18
1.87574582e+18
1.88848006e+18
1.90085371e+18
1.91285454e+18
1.92446534e+18
1.93566315e+18
1.9464186e+18
1.95669514e+18
1.96644843e+18
1.97562575e+18
1.98416558e+18
1.99199741e+18
1.99904195e+18
2.00521168e+18
2.01041213e+18
2.01454385e+18
2.01750528e+18
2.01919603e+18
9.66622725e+16
1.14125248e+17
1.31940199e+17
1.5010199e+17
1.68607014e+17
1.87455568e+17
2.06652674e+17
2.26207449e+17
2.46131675e+17
2.66438151e+17
2.87139212e+17
3.08245604e+17
3.29765729e+17
3.51705212e+17
3.74066721e+17
3.96849956e+17
4.20051755e+17
4.43666267e+17
4.67685147e+17
4.92097783e+17
5.16891505e+17
5.42051794e+17
5.67562474e+17
5.93405899e+17
6.19563115e+17
6.46014019e+17
6.727375e+17
6.99711573e+17
7.26913504e+17
7.54319927e+17
7.81906953e+17
8.09650282e+17
8.37525296e+17
8.65507167e+17
8.93570948e+17
9.2169167e+17
9.49844433e+17
9.78004504e+17
1.0061474e+18
1.034249e+18
1.0622856e+18
1.09023406e+18
1.11807184e+18
1.14577715e+18
1.17332902e+18
1.20070738e+18
1.22789324e+18
1.25486871e+18
1.28161719e+18
1.30812344e+18
1.33437376e+18
1.36035608e+18
1.38606014e+18
1.41147767e+18
1.4366025e+18
1.46143087e+18
1.48598892e+18
1.51014625e+18