/*--------------------------------*- C++ -*----------------------------------*\
| =========                 |                                                 |
| \\      /  F ield         | OpenFOAM Extend Project: Open source CFD        |
|  \\    /   O peration     | Version:  1.6-ext                               |
|   \\  /    A nd           | Web:      www.extend-project.de                 |
|    \\/     M anipulation  |                                                 |
\*---------------------------------------------------------------------------*/
FoamFile
{
    version     2.0;
    format      ascii;
    class       volScalarField;
    location    "4000";
    object      prec5_adj;
}
// * * * * * * * * * * * * * * * * * * * * * * * * * * * * * * * * * * * * * //

dimensions      [0 -2 -1 0 0 0 0];

internalField   nonuniform List<scalar> 
40000
(
2.06702249e+16
2.44154168e+16
2.81794785e+16
3.19837048e+16
3.583979e+16
3.97629185e+16
4.37149805e+16
4.77099243e+16
5.17465253e+16
5.5823403e+16
5.99390894e+16
6.40920714e+16
6.82808159e+16
7.25037852e+16
7.67594473e+16
8.10462807e+16
8.53627783e+16
8.97074486e+16
9.40788165e+16
9.84754237e+16
1.02895828e+17
1.07338601e+17
1.11802333e+17
1.16285624e+17
1.2078709e+17
1.25305358e+17
1.29839067e+17
1.34386866e+17
1.38947413e+17
1.43519376e+17
1.48101428e+17
1.52692248e+17
1.5729052e+17
1.61894929e+17
1.66504164e+17
1.7111691e+17
1.75731852e+17
1.80347669e+17
1.84963034e+17
1.89576612e+17
1.94187057e+17
1.98793008e+17
2.03393093e+17
2.0798592e+17
2.12570083e+17
2.17144159e+17
2.21706723e+17
2.26256366e+17
2.30791757e+17
2.35311788e+17
2.39815905e+17
2.44304908e+17
2.48782856e+17
2.53261618e+17
2.57726464e+17
2.62163966e+17
2.66572064e+17
2.70948651e+17
2.75291574e+17
2.79598631e+17
2.83867576e+17
2.88096111e+17
2.92281885e+17
2.96422499e+17
3.00515496e+17
3.04558362e+17
3.08548526e+17
3.12483352e+17
3.16360144e+17
3.20176136e+17
3.23928496e+17
3.27614316e+17
3.31230617e+17
3.34774339e+17
3.38242344e+17
3.41631406e+17
3.44938214e+17
3.48159362e+17
3.51291351e+17
3.54330578e+17
3.57273336e+17
3.60115804e+17
3.62854041e+17
3.65483982e+17
3.68001424e+17
3.70402019e+17
3.72681263e+17
3.74834483e+17
3.76856827e+17
3.78743248e+17
3.80488499e+17
3.8208712e+17
3.83533436e+17
3.84821563e+17
3.85945424e+17
3.86898766e+17
3.87675222e+17
3.8826831e+17
3.88671596e+17
3.88878411e+17
2.443068e+16
2.8882059e+16
3.3354689e+16
3.79385378e+16
4.25782707e+16
4.72867524e+16
5.20690914e+16
5.69251337e+16
6.18534123e+16
6.68516026e+16
7.19167885e+16
7.70456507e+16
8.22346034e+16
8.74798935e+16
9.27776772e+16
9.81240758e+16
1.0351522e+17
1.08947283e+17
1.14416505e+17
1.19919216e+17
1.25451844e+17
1.31010931e+17
1.36593135e+17
1.42195239e+17
1.47814151e+17
1.53446902e+17
1.59090648e+17
1.6474267e+17
1.70400365e+17
1.76061246e+17
1.81722937e+17
1.87383167e+17
1.93039768e+17
1.98690665e+17
2.04333874e+17
2.09967498e+17
2.15589719e+17
2.21198798e+17
2.26793069e+17
2.32370943e+17
2.37930906e+17
2.43471529e+17
2.48991476e+17
2.5448953e+17
2.59964619e+17
2.65415876e+17
2.70842711e+17
2.76244931e+17
2.81622922e+17
2.86977916e+17
2.92312394e+17
2.97630703e+17
3.02939979e+17
3.08251566e+17
3.13553021e+17
3.18810262e+17
3.2402109e+17
3.29183299e+17
3.3429467e+17
3.39352974e+17
3.44355968e+17
3.49301397e+17
3.54186991e+17
3.59010459e+17
3.63769491e+17
3.68461751e+17
3.73084873e+17
3.77636461e+17
3.82114078e+17
3.86515247e+17
3.90837444e+17
3.95078089e+17
3.99234544e+17
4.03304105e+17
4.07283992e+17
4.11171344e+17
4.14963204e+17
4.18656516e+17
4.22248105e+17
4.25734666e+17
4.29112745e+17
4.32378722e+17
4.35528786e+17
4.3855891e+17
4.41464817e+17
4.44241951e+17
4.46885431e+17
4.49390016e+17
4.51750054e+17
4.53959443e+17
4.56011584e+17
4.57899352e+17
4.59615076e+17
4.61150544e+17
4.62497039e+17
4.63645407e+17
4.64586191e+17
4.65309717e+17
4.65806434e+17
4.66066444e+17
2.82154756e+16
3.33867884e+16
3.86599277e+16
4.39848598e+16
4.93956329e+16
5.49016502e+16
6.05086685e+16
6.62192853e+16
7.20336119e+16
7.7949826e+16
8.39646267e+16
9.00736039e+16
9.62715407e+16
1.02552656e+17
1.08910806e+17
1.15339637e+17
1.21832721e+17
1.28383648e+17
1.34986105e+17
1.41633933e+17
1.48321168e+17
1.5504207e+17
1.61791141e+17
1.68563138e+17
1.75353075e+17
1.82156224e+17
1.8896811e+17
1.95784508e+17
2.02601433e+17
2.09415131e+17
2.1622207e+17
2.23018933e+17
2.29802604e+17
2.36570164e+17
2.43318879e+17
2.50046201e+17
2.56749754e+17
2.6342734e+17
2.70076937e+17
2.76696701e+17
2.83284978e+17
2.89840316e+17
2.96361486e+17
3.02847519e+17
3.0929774e+17
3.15711834e+17
3.22089924e+17
3.2843268e+17
3.34741463e+17
3.4101852e+17
3.47267247e+17
3.53492544e+17
3.59701293e+17
3.65903006e+17
3.72093514e+17
3.78219892e+17
3.84279778e+17
3.90270852e+17
3.96190845e+17
4.02037536e+17
4.07808751e+17
4.13502366e+17
4.19116303e+17
4.24648525e+17
4.30097036e+17
4.35459875e+17
4.40735108e+17
4.45920825e+17
4.51015133e+17
4.56016144e+17
4.60921968e+17
4.65730703e+17
4.70440421e+17
4.75049155e+17
4.79554882e+17
4.83955506e+17
4.88248837e+17
4.92432565e+17
4.96504233e+17
5.004612e+17
5.04300611e+17
5.08019343e+17
5.11613959e+17
5.15080649e+17
5.18415158e+17
5.21612716e+17
5.24667952e+17
5.27574804e+17
5.30326427e+17
5.32915105e+17
5.3533216e+17
5.37567898e+17
5.39611569e+17
5.4145138e+17
5.43074577e+17
5.4446759e+17
5.45616284e+17
5.46506199e+17
5.47123106e+17
5.47452517e+17
3.2032734e+16
3.79870943e+16
4.40014398e+16
5.009447e+16
5.62878219e+16
6.25963287e+16
6.90307573e+16
7.55977972e+16
8.23004354e+16
8.91384829e+16
9.61091376e+16
1.03207527e+17
1.10427201e+17
1.1776057e+17
1.25199266e+17
1.32734456e+17
1.40357077e+17
1.48058034e+17
1.55828344e+17
1.6365924e+17
1.71542249e+17
1.79469243e+17
1.87432471e+17
1.95424569e+17
2.03438575e+17
2.11467918e+17
2.19506414e+17
2.27548253e+17
2.35587988e+17
2.43620513e+17
2.51641056e+17
2.59645159e+17
2.67628666e+17
2.75587711e+17
2.83518708e+17
2.91418343e+17
2.99283565e+17
3.07111588e+17
3.1489989e+17
3.22646216e+17
3.30348587e+17
3.38005319e+17
3.45615037e+17
3.53176712e+17
3.60689694e+17
3.68153765e+17
3.75569209e+17
3.82936893e+17
3.9025838e+17
3.97536069e+17
4.04773379e+17
4.11974978e+17
4.19147082e+17
4.26297837e+17
4.33434387e+17
4.40484307e+17
4.47445061e+17
4.54314236e+17
4.61089546e+17
4.67768835e+17
4.74350083e+17
4.80831397e+17
4.8721102e+17
4.9348732e+17
4.9965879e+17
5.05724041e+17
5.11681791e+17
5.17530863e+17
5.23270165e+17
5.28898683e+17
5.34415464e+17
5.39819598e+17
5.45110194e+17
5.50286362e+17
5.55347177e+17
5.60291654e+17
5.65118702e+17
5.69827086e+17
5.74415373e+17
5.78881871e+17
5.83224565e+17
5.87441029e+17
5.91528344e+17
5.95482986e+17
5.99300717e+17
6.02976448e+17
6.06504104e+17
6.09876471e+17
6.13085045e+17
6.16119882e+17
6.18969466e+17
6.21620613e+17
6.24058418e+17
6.26266292e+17
6.28226092e+17
6.29918374e+17
6.31322807e+17
6.32418613e+17
6.33185395e+17
6.33602747e+17
3.58873822e+16
4.26029774e+16
4.93795671e+16
5.62502506e+16
6.3235791e+16
7.03554911e+16
7.76251871e+16
8.50562047e+16
9.26551485e+16
1.00424199e+17
1.08361679e+17
1.16462737e+17
1.24720041e+17
1.33124424e+17
1.41665453e+17
1.50331904e+17
1.59112143e+17
1.67994424e+17
1.76967115e+17
1.86018857e+17
1.95138674e+17
2.04316052e+17
2.13540975e+17
2.22803948e+17
2.32096004e+17
2.41408693e+17
2.50734071e+17
2.60064678e+17
2.69393522e+17
2.78714053e+17
2.88020145e+17
2.97306072e+17
3.06566493e+17
3.15796435e+17
3.24991279e+17
3.3414675e+17
3.4325891e+17
3.52324152e+17
3.61339202e+17
3.70301125e+17
3.79207325e+17
3.88055571e+17
3.96844007e+17
4.05571183e+17
4.1423609e+17
4.22838206e+17
4.31377551e+17
4.39854762e+17
4.4827118e+17
4.5662896e+17
4.64931217e+17
4.73182188e+17
4.81387451e+17
4.89554182e+17
4.97703086e+17
5.05740798e+17
5.13664588e+17
5.21471955e+17
5.29160625e+17
5.36728555e+17
5.4417394e+17
5.51495213e+17
5.58691046e+17
5.65760344e+17
5.72702242e+17
5.795161e+17
5.86201483e+17
5.9275816e+17
5.99186077e+17
6.05485344e+17
6.11656208e+17
6.17699028e+17
6.23614239e+17
6.29402317e+17
6.35063731e+17
6.40598894e+17
6.460081e+17
6.51291455e+17
6.56448796e+17
6.61479595e+17
6.66382853e+17
6.71156975e+17
6.75799631e+17
6.80307591e+17
6.84676556e+17
6.88900956e+17
6.92973745e+17
6.96886174e+17
7.00627574e+17
7.04185137e+17
7.07543732e+17
7.10685762e+17
7.13591111e+17
7.1623719e+17
7.18599149e+17
7.20650254e+17
7.22362488e+17
7.23707253e+17
7.24656515e+17
7.25182614e+17
3.97853645e+16
4.72353089e+16
5.47801824e+16
6.24355547e+16
7.02225247e+16
7.81636388e+16
8.6279305e+16
9.45854821e+16
1.03092654e+17
1.11805731e+17
1.2072453e+17
1.29844551e+17
1.39157865e+17
1.48653974e+17
1.58320589e+17
1.6814428e+17
1.78111005e+17
1.88206515e+17
1.98416658e+17
2.08727594e+17
2.1912594e+17
2.29598868e+17
2.40134151e+17
2.50720193e+17
2.61346028e+17
2.72001306e+17
2.8267628e+17
2.93361775e+17
3.04049163e+17
3.14730332e+17
3.25397664e+17
3.36044009e+17
3.46662659e+17
3.57247335e+17
3.67792169e+17
3.78291693e+17
3.88740831e+17
3.99134896e+17
4.09469589e+17
4.19741009e+17
4.29945653e+17
4.40080443e+17
4.50142738e+17
4.60130364e+17
4.70041648e+17
4.79875465e+17
4.89631284e+17
4.99309239e+17
5.08910207e+17
5.18435899e+17
5.27888982e+17
5.37273214e+17
5.46593609e+17
5.55856637e+17
5.65083798e+17
5.74186578e+17
5.83148925e+17
5.91968227e+17
6.0064222e+17
6.09168994e+17
6.17547e+17
6.25775059e+17
6.33852354e+17
6.41778434e+17
6.49553204e+17
6.57176912e+17
6.64650142e+17
6.71973788e+17
6.79149037e+17
6.86177339e+17
6.93060369e+17
6.99799994e+17
7.0639822e+17
7.1285714e+17
7.19178865e+17
7.25365451e+17
7.31418807e+17
7.37340599e+17
7.43132126e+17
7.48794187e+17
7.54326927e+17
7.59729659e+17
7.65000662e+17
7.70136964e+17
7.75134087e+17
7.79985781e+17
7.84683736e+17
7.89217276e+17
7.93573062e+17
7.97734801e+17
8.01683002e+17
8.05394791e+17
8.08843844e+17
8.12000466e+17
8.14831879e+17
8.17302745e+17
8.19375985e+17
8.21013775e+17
8.22179059e+17
8.22835636e+17
4.36912608e+16
5.18812445e+16
6.01933838e+16
6.86376893e+16
7.72339744e+16
8.6006786e+16
9.49803468e+16
1.04174883e+17
1.13604655e+17
1.23277358e+17
1.33194446e+17
1.43351967e+17
1.53741616e+17
1.64351806e+17
1.75168636e+17
1.86176718e+17
1.97359839e+17
2.08701471e+17
2.20185146e+17
2.31794724e+17
2.43514568e+17
2.55329659e+17
2.67225652e+17
2.79188907e+17
2.91206485e+17
3.03266135e+17
3.15356268e+17
3.27465925e+17
3.39584749e+17
3.51702946e+17
3.63811261e+17
3.75900946e+17
3.8796374e+17
3.99991849e+17
4.11977932e+17
4.23915088e+17
4.35796852e+17
4.47617194e+17
4.59370521e+17
4.71051689e+17
4.82656009e+17
4.94179274e+17
5.05617774e+17
5.16968335e+17
5.28228346e+17
5.39395813e+17
5.50469403e+17
5.61448516e+17
5.72333349e+17
5.83124993e+17
5.93825531e+17
6.04438159e+17
6.14967327e+17
6.25418898e+17
6.35800336e+17
6.46058102e+17
6.56147203e+17
6.66064874e+17
6.75808834e+17
6.85377303e+17
6.9476901e+17
7.03983198e+17
7.13019627e+17
7.21878566e+17
7.30560789e+17
7.39067557e+17
7.47400605e+17
7.55562108e+17
7.63554662e+17
7.71381233e+17
7.7904512e+17
7.86549896e+17
7.93899342e+17
8.01097372e+17
8.08147941e+17
8.15054942e+17
8.21822087e+17
8.28452765e+17
8.34949881e+17
8.41315676e+17
8.47551516e+17
8.53657659e+17
8.59632984e+17
8.65474701e+17
8.71178026e+17
8.76735824e+17
8.8213824e+17
8.87372311e+17
8.92421578e+17
8.97265723e+17
9.01880259e+17
9.06236304e+17
9.10300501e+17
9.14035129e+17
9.17398473e+17
9.20345506e+17
9.22828941e+17
9.24800542e+17
9.26213039e+17
9.2702056e+17
4.76175245e+16
5.65371194e+16
6.56125096e+16
7.48473721e+16
8.42590671e+16
9.38730577e+16
1.03716548e+17
1.13813463e+17
1.24181494e+17
1.34830953e+17
1.45764905e+17
1.56980029e+17
1.68467813e+17
1.80215802e+17
1.92208748e+17
2.04429584e+17
2.16860209e+17
2.29482089e+17
2.42276693e+17
2.55225805e+17
2.68311727e+17
2.81517403e+17
2.94826488e+17
3.08223379e+17
3.21693206e+17
3.35221822e+17
3.48795768e+17
3.62402241e+17
3.76029059e+17
3.89664623e+17
4.03297892e+17
4.16918349e+17
4.30515983e+17
4.44081269e+17
4.57605158e+17
4.71079068e+17
4.84494881e+17
4.9784495e+17
5.11122106e+17
5.24319668e+17
5.37431467e+17
5.50451865e+17
5.63375787e+17
5.76198756e+17
5.88916932e+17
6.01527163e+17
6.1402704e+17
6.26414958e+17
6.38690196e+17
6.50852998e+17
6.6290467e+17
6.74847693e+17
6.86685846e+17
6.98424345e+17
7.10070004e+17
7.21581136e+17
7.32893449e+17
7.44003971e+17
7.54910372e+17
7.65610993e+17
7.76104845e+17
7.86391625e+17
7.96471713e+17
8.06346165e+17
8.16016703e+17
8.254857e+17
8.34756149e+17
8.43831636e+17
8.52716293e+17
8.61414754e+17
8.6993209e+17
8.78273735e+17
8.86445403e+17
8.94452986e+17
9.02302435e+17
9.09999627e+17
9.17550203e+17
9.24959392e+17
9.32231802e+17
9.39371182e+17
9.46380163e+17
9.53259948e+17
9.60009984e+17
9.66627588e+17
9.73107541e+17
9.79441652e+17
9.85618295e+17
9.91621933e+17
9.97432648e+17
1.0030257e+18
1.00837114e+18
1.01343358e+18
1.01817204e+18
1.02254014e+18
1.02648653e+18
1.02995574e+18
1.03288945e+18
1.03522817e+18
1.03691349e+18
1.03788899e+18
5.15634622e+16
6.12007829e+16
7.10332279e+16
8.10580042e+16
9.12893183e+16
1.01752702e+17
1.1247755e+17
1.23490833e+17
1.34813192e+17
1.46457251e+17
1.58427544e+17
1.70721381e+17
1.83330161e+17
1.96240769e+17
2.09436869e+17
2.22900012e+17
2.36610515e+17
2.50548134e+17
2.64692556e+17
2.79023738e+17
2.93522134e+17
3.08168829e+17
3.22945614e+17
3.37835015e+17
3.52820291e+17
3.67885408e+17
3.83015017e+17
3.98194411e+17
4.13409492e+17
4.28646735e+17
4.43893159e+17
4.59136298e+17
4.74364188e+17
4.89565348e+17
5.04728774e+17
5.1984394e+17
5.34900797e+17
5.49889788e+17
5.64801861e+17
5.79628491e+17
5.94361706e+17
6.08994117e+17
6.23518957e+17
6.37930122e+17
6.52222219e+17
6.66390625e+17
6.8043154e+17
6.94342064e+17
7.0812027e+17
7.21765291e+17
7.35277415e+17
7.48658191e+17
7.61910549e+17
7.75038921e+17
7.88049386e+17
8.00914197e+17
8.135478e+17
8.25946971e+17
8.38109314e+17
8.50033279e+17
8.61718177e+17
8.73164183e+17
8.84372338e+17
8.9534454e+17
9.06083528e+17
9.1659286e+17
9.26876879e+17
9.3694067e+17
9.46790012e+17
9.56431307e+17
9.65871508e+17
9.75118022e+17
9.84178605e+17
9.93061232e+17
1.00177395e+18
1.01032471e+18
1.01872117e+18
1.02697045e+18
1.03507892e+18
1.04305187e+18
1.0508932e+18
1.05860505e+18
1.06618739e+18
1.07363757e+18
1.08094987e+18
1.08811489e+18
1.09511911e+18
1.10194424e+18
1.10856671e+18
1.11495713e+18
1.12107989e+18
1.12689278e+18
1.13234696e+18
1.13738707e+18
1.14195179e+18
1.14597482e+18
1.14938638e+18
1.1521152e+18
1.15409121e+18
1.15524683e+18
5.55286581e+16
6.58710854e+16
7.64528436e+16
8.72650154e+16
9.83183563e+16
1.09637872e+17
1.21254463e+17
1.33197499e+17
1.45490038e+17
1.5814664e+17
1.71173097e+17
1.84567303e+17
1.9832065e+17
2.12419544e+17
2.26846818e+17
2.41582934e+17
2.56606935e+17
2.71897176e+17
2.87431846e+17
3.03189337e+17
3.19148475e+17
3.35288673e+17
3.51589997e+17
3.68033202e+17
3.84599723e+17
4.01271659e+17
4.18031736e+17
4.34863277e+17
4.51750161e+17
4.68676792e+17
4.85628076e+17
5.02589394e+17
5.19546593e+17
5.36485976e+17
5.53394304e+17
5.70258799e+17
5.87067164e+17
6.03807595e+17
6.20468812e+17
6.37040089e+17
6.53511288e+17
6.69872907e+17
6.86116121e+17
7.0223284e+17
7.18215764e+17
7.34058449e+17
7.49755374e+17
7.65302023e+17
7.80694958e+17
7.95931921e+17
8.1101192e+17
8.25935343e+17
8.40704067e+17
8.55321577e+17
8.69793093e+17
8.84106895e+17
8.98154579e+17
9.11932657e+17
9.2543866e+17
9.38671162e+17
9.51629792e+17
9.64315237e+17
9.76729242e+17
9.88874595e+17
1.0007551e+18
1.01237558e+18
1.02374177e+18
1.03486032e+18
1.04573874e+18
1.05638526e+18
1.06680878e+18
1.07701875e+18
1.08702503e+18
1.09683772e+18
1.10646703e+18
1.11592301e+18
1.12521536e+18
1.13435316e+18
1.14334451e+18
1.15219625e+18
1.16091354e+18
1.16949944e+18
1.1779544e+18
1.18627579e+18
1.19445728e+18
1.20248829e+18
1.2103533e+18
1.21803123e+18
1.22549484e+18
1.23271006e+18
1.23963558e+18
1.24622242e+18
1.25241386e+18
1.25814559e+18
1.26334633e+18
1.26793893e+18
1.27184211e+18
1.27497268e+18
1.27724867e+18
1.27859104e+18
5.95128716e+16
7.05475259e+16
8.18698007e+16
9.34653409e+16
1.05341481e+17
1.17522342e+17
1.30039784e+17
1.42924988e+17
1.56202905e+17
1.69889637e+17
1.83992006e+17
1.98508411e+17
2.13430294e+17
2.28743751e+17
2.44431021e+17
2.60471755e+17
2.76844027e+17
2.93525086e+17
3.10491905e+17
3.27721562e+17
3.45191474e+17
3.6287955e+17
3.80764262e+17
3.98824672e+17
4.17040429e+17
4.35391749e+17
4.53859378e+17
4.72424562e+17
4.91069015e+17
5.09774887e+17
5.28524749e+17
5.47301576e+17
5.66088741e+17
5.84870019e+17
6.03629602e+17
6.22352112e+17
6.41022629e+17
6.59626728e+17
6.78150511e+17
6.96580661e+17
7.14904488e+17
7.33109985e+17
7.51185893e+17
7.69121762e+17
7.86908028e+17
8.04536082e+17
8.21998356e+17
8.39288405e+17
8.56400997e+17
8.73332211e+17
8.90079537e+17
9.0664198e+17
9.23020176e+17
9.39216502e+17
9.55235197e+17
9.71082479e+17
9.86626054e+17
1.00186218e+18
1.01678834e+18
1.03140327e+18
1.04570694e+18
1.0597006e+18
1.07338674e+18
1.08676907e+18
1.09985251e+18
1.11264317e+18
1.12514825e+18
1.13737602e+18
1.14933569e+18
1.16103739e+18
1.172492e+18
1.18371101e+18
1.1947064e+18
1.20549043e+18
1.21607545e+18
1.22647364e+18
1.23669672e+18
1.24675567e+18
1.25666036e+18
1.26641914e+18
1.2760384e+18
1.28552209e+18
1.29487114e+18
1.30408291e+18
1.31315051e+18
1.32206213e+18
1.33080033e+18
1.33934135e+18
1.34765433e+18
1.35570071e+18
1.36343367e+18
1.37079769e+18
1.37772846e+18
1.38415302e+18
1.38999045e+18
1.39515308e+18
1.39954834e+18
1.40308136e+18
1.40565834e+18
1.40718873e+18
6.35159636e+16
7.52300255e+16
8.72833358e+16
9.96570266e+16
1.12355295e+17
1.25401232e+17
1.38827252e+17
1.52665853e+17
1.66943404e+17
1.81677185e+17
1.96874816e+17
2.12535122e+17
2.28649646e+17
2.45204316e+17
2.62180998e+17
2.79558799e+17
2.97315097e+17
3.15426312e+17
3.33868462e+17
3.52617534e+17
3.71649725e+17
3.90941582e+17
4.10470076e+17
4.30212619e+17
4.50147066e+17
4.70251685e+17
4.90505133e+17
5.10886422e+17
5.31374896e+17
5.51950208e+17
5.72592312e+17
5.93281459e+17
6.13998209e+17
6.34723444e+17
6.554384e+17
6.76124702e+17
6.96764406e+17
7.17340052e+17
7.37834723e+17
7.58232107e+17
7.78516565e+17
7.9867321e+17
8.18687978e+17
8.38547716e+17
8.58240262e+17
8.77754538e+17
8.97080639e+17
9.16209928e+17
9.35135137e+17
9.53850465e+17
9.72351687e+17
9.90636257e+17
1.00870342e+18
1.02655433e+18
1.04419214e+18
1.06164257e+18
1.07874903e+18
1.09550756e+18
1.11191565e+18
1.12797223e+18
1.14367768e+18
1.15903384e+18
1.17404398e+18
1.18871278e+18
1.20304633e+18
1.21705202e+18
1.23073854e+18
1.24411576e+18
1.25719467e+18
1.26998724e+18
1.28250631e+18
1.29476543e+18
1.30677867e+18
1.3185604e+18
1.33012509e+18
1.34148697e+18
1.35265979e+18
1.36365637e+18
1.3744883e+18
1.3851654e+18
1.39569527e+18
1.40608273e+18
1.4163292e+18
1.42643202e+18
1.4363838e+18
1.44617161e+18
1.45577622e+18
1.46517132e+18
1.47432272e+18
1.48318764e+18
1.49171412e+18
1.49984054e+18
1.50749547e+18
1.51459786e+18
1.5210577e+18
1.52677735e+18
1.53165355e+18
1.53558014e+18
1.53845182e+18
1.54016678e+18
6.75378521e+16
7.99187796e+16
9.26932376e+16
1.05838936e+17
1.19357415e+17
1.33270762e+17
1.47611692e+17
1.62413623e+17
1.77703948e+17
1.93500804e+17
2.09812415e+17
2.26637958e+17
2.43969121e+17
2.61791801e+17
2.8008769e+17
2.9883558e+17
3.18012404e+17
3.37593995e+17
3.57555629e+17
3.77872388e+17
3.98519388e+17
4.19471905e+17
4.40705443e+17
4.62195749e+17
4.83918804e+17
5.05850803e+17
5.27968129e+17
5.50247333e+17
5.72665112e+17
5.95198308e+17
6.1782391e+17
6.40519074e+17
6.63261146e+17
6.86027707e+17
7.08796618e+17
7.31546083e+17
7.54254713e+17
7.76901604e+17
7.99466415e+17
8.21929456e+17
8.44271779e+17
8.66475267e+17
8.88522736e+17
9.1039803e+17
9.32086125e+17
9.53573224e+17
9.74846867e+17
9.95896034e+17
1.01671125e+18
1.03728468e+18
1.05761026e+18
1.07768379e+18
1.09750304e+18
1.11706785e+18
1.13638028e+18
1.15548661e+18
1.17420619e+18
1.1925349e+18
1.21047031e+18
1.22801161e+18
1.24515962e+18
1.26191684e+18
1.27828735e+18
1.29427684e+18
1.30989254e+18
1.32514319e+18
1.34003892e+18
1.35459122e+18
1.36881279e+18
1.38271745e+18
1.39631996e+18
1.40963584e+18
1.42268121e+18
1.4354725e+18
1.44802621e+18
1.46035859e+18
1.47248528e+18
1.48442094e+18
1.49617878e+18
1.50777006e+18
1.51920356e+18
1.53048495e+18
1.54161613e+18
1.55259453e+18
1.56341231e+18
1.57405556e+18
1.58450345e+18
1.59472739e+18
1.60469019e+18
1.61434527e+18
1.623636e+18
1.63249523e+18
1.64084506e+18
1.64859705e+18
1.65565287e+18
1.66190566e+18
1.66724217e+18
1.67154565e+18
1.67469984e+18
1.67659203e+18
7.15784848e+16
8.46141613e+16
9.80996803e+16
1.12010536e+17
1.26346241e+17
1.41128056e+17
1.56388865e+17
1.72162727e+17
1.88477751e+17
2.05352678e+17
2.22796178e+17
2.40807732e+17
2.59379218e+17
2.78496629e+17
2.98141651e+17
3.18292966e+17
3.38927266e+17
3.60019986e+17
3.81545825e+17
4.03479082e+17
4.25793862e+17
4.4846419e+17
4.71464065e+17
4.94767465e+17
5.18348347e+17
5.42180619e+17
5.66238129e+17
5.90494655e+17
6.14923903e+17
6.39499521e+17
6.64195131e+17
6.88984366e+17
7.13840929e+17
7.38738659e+17
7.63651612e+17
7.88554146e+17
8.13421021e+17
8.382275e+17
8.62949455e+17
8.87563481e+17
9.12047006e+17
9.36378411e+17
9.60537138e+17
9.84503811e+17
1.00826035e+18
1.03179008e+18
1.05507785e+18
1.07811014e+18
1.10087519e+18
1.12336305e+18
1.14556578e+18
1.16747747e+18
1.1890944e+18
1.21041511e+18
1.23144052e+18
1.25223811e+18
1.2726039e+18
1.29253375e+18
1.31202534e+18
1.33107821e+18
1.34969369e+18
1.36787496e+18
1.38562696e+18
1.40295638e+18
1.41987164e+18
1.43638277e+18
1.45250135e+18
1.46824044e+18
1.48361441e+18
1.49863886e+18
1.5133304e+18
1.52770646e+18
1.5417851e+18
1.55558473e+18
1.56912379e+18
1.58242043e+18
1.59549215e+18
1.60835532e+18
1.6210247e+18
1.63351296e+18
1.64583e+18
1.65798234e+18
1.66997241e+18
1.68179776e+18
1.69345024e+18
1.70491514e+18
1.71617026e+18
1.72718507e+18
1.73791975e+18
1.7483244e+18
1.7583383e+18
1.76788944e+18
1.77689419e+18
1.78525754e+18
1.7928737e+18
1.79962749e+18
1.80539655e+18
1.81005432e+18
1.8134743e+18
1.81553338e+18
7.5637821e+16
8.93166548e+16
1.03503106e+17
1.18171741e+17
1.33320786e+17
1.48970968e+17
1.65155332e+17
1.81908406e+17
1.99258798e+17
2.17225671e+17
2.35818033e+17
2.55035649e+17
2.7487064e+17
2.95309202e+17
3.16333166e+17
3.37921261e+17
3.60050091e+17
3.82694824e+17
4.05829673e+17
4.294282e+17
4.53463491e+17
4.77908252e+17
5.02734845e+17
5.27915296e+17
5.53421287e+17
5.79224143e+17
6.05294833e+17
6.3160398e+17
6.58121885e+17
6.8481857e+17
7.11663838e+17
7.3862735e+17
7.65678717e+17
7.92787599e+17
8.19923826e+17
8.47057516e+17
8.74159208e+17
9.01199993e+17
9.28151653e+17
9.54986799e+17
9.81679005e+17
1.00820295e+18
1.03453453e+18
1.06065103e+18
1.08653121e+18
1.11215545e+18
1.13750584e+18
1.16256636e+18
1.18732292e+18
1.2117635e+18
1.23587827e+18
1.25965967e+18
1.28310252e+18
1.30620408e+18
1.32896421e+18
1.35147165e+18
1.37350039e+18
1.3950463e+18
1.41610733e+18
1.43668339e+18
1.45677639e+18
1.47639023e+18
1.49553072e+18
1.51420559e+18
1.5324244e+18
1.55019846e+18
1.56754077e+18
1.58446589e+18
1.60098981e+18
1.61712981e+18
1.63290427e+18
1.64833243e+18
1.66343419e+18
1.6782298e+18
1.69273956e+18
1.70698341e+18
1.72098058e+18
1.73474906e+18
1.74830511e+18
1.76166271e+18
1.77483286e+18
1.78782295e+18
1.80063595e+18
1.81326962e+18
1.82571563e+18
1.83795868e+18
1.84997548e+18
1.86173387e+18
1.87319186e+18
1.88429675e+18
1.89498436e+18
1.90517851e+18
1.91479067e+18
1.92372011e+18
1.93185452e+18
1.9390714e+18
1.94524021e+18
1.95022552e+18
1.95389133e+18
1.95610487e+18
7.97158189e+16
9.40268111e+16
1.08904144e+17
1.24322797e+17
1.40280535e+17
1.56797949e+17
1.73908337e+17
1.91646624e+17
2.10041792e+17
2.29113316e+17
2.48870489e+17
2.69313362e+17
2.9043436e+17
3.12219981e+17
3.34652312e+17
3.57710243e+17
3.81370381e+17
4.0560769e+17
4.30395908e+17
4.55707818e+17
4.81515386e+17
5.07789836e+17
5.34501675e+17
5.61620691e+17
5.89115964e+17
6.16955859e+17
6.45108058e+17
6.73539593e+17
7.02216912e+17
7.31105956e+17
7.60172264e+17
7.89381089e+17
8.18697538e+17
8.48086712e+17
8.77513868e+17
9.06944575e+17
9.36344883e+17
9.65681488e+17
9.94921895e+17
1.02403458e+18
1.05298916e+18
1.08175652e+18
1.11030897e+18
1.13862041e+18
1.16666641e+18
1.1944244e+18
1.22187373e+18
1.24899583e+18
1.27577432e+18
1.30219506e+18
1.32824633e+18
1.35391889e+18
1.37920605e+18
1.4041038e+18
1.42861086e+18
1.45273721e+18
1.47643068e+18
1.49959311e+18
1.52222273e+18
1.54431992e+18
1.56588723e+18
1.58692929e+18
1.60745282e+18
1.62746655e+18
1.64698119e+18
1.66600928e+18
1.68456519e+18
1.70266491e+18
1.72032596e+18
1.73756721e+18
1.75440869e+18
1.77087135e+18
1.78697679e+18
1.80274701e+18
1.81820401e+18
1.83336941e+18
1.84826405e+18
1.86290744e+18
1.87731726e+18
1.89150873e+18
1.90549392e+18
1.91928108e+18
1.93287376e+18
1.94627004e+18
1.95946154e+18
1.97243257e+18
1.98515903e+18
1.99760752e+18
2.00973431e+18
2.02148444e+18
2.03279091e+18
2.0435741e+18
2.05374137e+18
2.06318721e+18
2.07179377e+18
2.07943218e+18
2.08596477e+18
2.0912482e+18
2.09513786e+18
2.09749202e+18
8.38124264e+16
9.87452148e+16
1.14303545e+17
1.30464192e+17
1.47225349e+17
1.64607941e+17
1.82645706e+17
2.01373986e+17
2.20822096e+17
2.41009785e+17
2.61946622e+17
2.8363298e+17
3.0606165e+17
3.29219509e+17
3.53088981e+17
3.77649178e+17
4.02876737e+17
4.28746393e+17
4.5523134e+17
4.82303448e+17
5.09933366e+17
5.38090578e+17
5.66743417e+17
5.95859073e+17
6.2540361e+17
6.55341992e+17
6.85638146e+17
7.16255036e+17
7.47154772e+17
7.78298737e+17
8.09647741e+17
8.41162188e+17
8.72802263e+17
9.04528118e+17
9.36300077e+17
9.68078833e+17
9.99825654e+17
1.03150258e+18
1.06307261e+18
1.0944999e+18
1.12574994e+18
1.15678972e+18
1.18758789e+18
1.21811493e+18
1.24834327e+18
1.27824744e+18
1.3078042e+18
1.33699263e+18
1.36579427e+18
1.3941932e+18
1.42217614e+18
1.4497325e+18
1.47685453e+18
1.5035373e+18
1.5297788e+18
1.55557999e+18
1.5809269e+18
1.6056936e+18
1.6298787e+18
1.65348315e+18
1.67651012e+18
1.69896503e+18
1.72085551e+18
1.74219128e+18
1.76298415e+18
1.78324788e+18
1.8029981e+18
1.82225217e+18
1.84102904e+18
1.85934907e+18
1.87723381e+18
1.89470579e+18
1.91178821e+18
1.92850464e+18
1.94487867e+18
1.96093347e+18
1.97669137e+18
1.9921733e+18
2.00739825e+18
2.02238262e+18
2.03713954e+18
2.05167807e+18
2.06600241e+18
2.08011103e+18
2.09399568e+18
2.10764045e+18
2.12102076e+18
2.13410229e+18
2.14684003e+18
2.15917729e+18
2.17104487e+18
2.18236044e+18
2.19302808e+18
2.20293837e+18
2.21196887e+18
2.2199854e+18
2.22684415e+18
2.23239486e+18
2.23648526e+18
2.23896549e+18
8.79275735e+16
1.0347246e+17
1.19702142e+17
1.36596595e+17
1.54155374e+17
1.72400281e+17
1.91365753e+17
2.11087652e+17
2.31595664e+17
2.52909836e+17
2.7504005e+17
2.97987056e+17
3.21744074e+17
3.46298421e+17
3.71632896e+17
3.97726832e+17
4.24556855e+17
4.52097371e+17
4.80320864e+17
5.09198062e+17
5.38698007e+17
5.68788091e+17
5.99434072e+17
6.3060009e+17
6.62248714e+17
6.94341006e+17
7.26836619e+17
7.59693933e+17
7.92870213e+17
8.26321795e+17
8.60004298e+17
8.93872846e+17
9.27882312e+17
9.61987559e+17
9.96143685e+17
1.03030627e+18
1.06443164e+18
1.09847705e+18
1.13240095e+18
1.16616319e+18
1.19972522e+18
1.23305026e+18
1.26610347e+18
1.29885211e+18
1.33126572e+18
1.36331617e+18
1.39497782e+18
1.42622765e+18
1.45704529e+18
1.48741314e+18
1.51731645e+18
1.54674338e+18
1.57568505e+18
1.60413562e+18
1.63209233e+18
1.65955556e+18
1.68653345e+18
1.71288142e+18
1.73859859e+18
1.76368644e+18
1.78814888e+18
1.81199212e+18
1.83522466e+18
1.85785723e+18
1.87990269e+18
1.90137593e+18
1.9222938e+18
1.94267494e+18
1.9625396e+18
1.98190954e+18
2.0008077e+18
2.01925805e+18
2.03728525e+18
2.05491432e+18
2.07217028e+18
2.08907772e+18
2.10566034e+18
2.12194038e+18
2.13793805e+18
2.15367086e+18
2.16915293e+18
2.18439417e+18
2.19939946e+18
2.21416773e+18
2.228691e+18
2.24295338e+18
2.25693002e+18
2.27058607e+18
2.28387565e+18
2.29674086e+18
2.30911092e+18
2.32090146e+18
2.33201408e+18
2.3423363e+18
2.35174205e+18
2.3600928e+18
2.36723964e+18
2.3730264e+18
2.37729408e+18
2.37988554e+18
9.20611666e+16
1.08209132e+17
1.2510081e+17
1.42720799e+17
1.61070982e+17
1.80174631e+17
2.00067208e+17
2.20785274e+17
2.42358985e+17
2.64808767e+17
2.88144894e+17
3.12368561e+17
3.3747348e+17
3.63447441e+17
3.90273609e+17
4.17931486e+17
4.46397564e+17
4.75645739e+17
5.05647529e+17
5.36372201e+17
5.67786805e+17
5.99856205e+17
6.32543099e+17
6.65808061e+17
6.99609627e+17
7.33904403e+17
7.68647228e+17
8.03791366e+17
8.39288732e+17
8.7509015e+17
9.11145627e+17
9.47404644e+17
9.83816458e+17
1.0203304e+18
1.05689618e+18
1.09346417e+18
1.12998568e+18
1.16641324e+18
1.20270083e+18
1.23880412e+18
1.27468065e+18
1.31029004e+18
1.34559417e+18
1.3805573e+18
1.4151462e+18
1.4493303e+18
1.48308176e+18
1.51637556e+18
1.54918962e+18
1.58150482e+18
1.6133051e+18
1.64457751e+18
1.67531223e+18
1.70550269e+18
1.7351455e+18
1.76424056e+18
1.79281772e+18
1.82071512e+18
1.8479324e+18
1.8744717e+18
1.90033765e+18
1.92553726e+18
1.95007992e+18
1.97397731e+18
1.99724329e+18
2.01989386e+18
2.04194697e+18
2.06342244e+18
2.08434176e+18
2.10472791e+18
2.12460514e+18
2.14399871e+18
2.16293457e+18
2.18143907e+18
2.19953854e+18
2.21725885e+18
2.23462491e+18
2.25166018e+18
2.26838599e+18
2.2848209e+18
2.30097998e+18
2.31687398e+18
2.33250847e+18
2.34788295e+18
2.36298982e+18
2.37781339e+18
2.39232882e+18
2.40650106e+18
2.42028375e+18
2.43361827e+18
2.44643281e+18
2.45864163e+18
2.47014457e+18
2.48082695e+18
2.49055994e+18
2.49920161e+18
2.50659895e+18
2.51259086e+18
2.51701259e+18
2.51970061e+18
9.62130837e+16
1.12955794e+17
1.30500446e+17
1.48837683e+17
1.67972715e+17
1.87930913e+17
2.08749149e+17
2.30464918e+17
2.53109009e+17
2.76702355e+17
3.01255727e+17
3.26770849e+17
3.53241973e+17
3.80657366e+17
4.0900051e+17
4.38250953e+17
4.68384864e+17
4.99375357e+17
5.3119265e+17
5.63804138e+17
5.97174416e+17
6.31265304e+17
6.66035889e+17
7.01442611e+17
7.3743939e+17
7.73977811e+17
8.11007346e+17
8.48475632e+17
8.86328768e+17
9.24511654e+17
9.62968338e+17
1.00164238e+18
1.04047722e+18
1.07941652e+18
1.11840452e+18
1.15738639e+18
1.1963085e+18
1.23511871e+18
1.27376667e+18
1.31220401e+18
1.35038456e+18
1.38826455e+18
1.42580273e+18
1.46296057e+18
1.49970233e+18
1.53599518e+18
1.57180929e+18
1.60711791e+18
1.64189745e+18
1.6761275e+18
1.7097909e+18
1.74287379e+18
1.77536563e+18
1.80725922e+18
1.83855076e+18