/*--------------------------------*- C++ -*----------------------------------*\
| =========                 |                                                 |
| \\      /  F ield         | OpenFOAM Extend Project: Open source CFD        |
|  \\    /   O peration     | Version:  1.6-ext                               |
|   \\  /    A nd           | Web:      www.extend-project.de                 |
|    \\/     M anipulation  |                                                 |
\*---------------------------------------------------------------------------*/
FoamFile
{
    version     2.0;
    format      ascii;
    class       volScalarField;
    location    "4000";
    object      prec3_adj;
}
// * * * * * * * * * * * * * * * * * * * * * * * * * * * * * * * * * * * * * //

dimensions      [0 -2 -1 0 0 0 0];

internalField   nonuniform List<scalar> 
40000
(
2.0721919e+16
2.44374212e+16
2.81018171e+16
3.18555631e+16
3.57832193e+16
4.00120142e+16
4.42793613e+16
4.86892145e+16
5.32380334e+16
5.7918796e+16
6.27215384e+16
6.7634055e+16
7.26426898e+16
7.77331029e+16
8.28909296e+16
8.81022877e+16
9.33541313e+16
9.86344688e+16
1.03932473e+17
1.0923851e+17
1.14544118e+17
1.19841947e+17
1.25125677e+17
1.30389935e+17
1.35630197e+17
1.40842704e+17
1.46024373e+17
1.51172727e+17
1.56285817e+17
1.61362167e+17
1.66400715e+17
1.71400774e+17
1.76361985e+17
1.81284293e+17
1.86167921e+17
1.91013353e+17
1.95821324e+17
2.00592822e+17
2.0532909e+17
2.10031644e+17
2.14702299e+17
2.19343203e+17
2.23956894e+17
2.28546361e+17
2.33115135e+17
2.37667402e+17
2.42208144e+17
2.4674332e+17
2.51280101e+17
2.55827156e+17
2.60395025e+17
2.64996595e+17
2.696477e+17
2.74367893e+17
2.79078375e+17
2.83726199e+17
2.88309318e+17
2.92825899e+17
2.9727434e+17
3.01653265e+17
3.05961521e+17
3.1019817e+17
3.1436249e+17
3.18453953e+17
3.22472226e+17
3.26417151e+17
3.30288738e+17
3.34087144e+17
3.37812662e+17
3.414657e+17
3.45046768e+17
3.48556451e+17
3.51995394e+17
3.5536427e+17
3.58663759e+17
3.61894512e+17
3.65057118e+17
3.68152061e+17
3.7117967e+17
3.74140062e+17
3.77033071e+17
3.79858169e+17
3.8261437e+17
3.85300115e+17
3.87913144e+17
3.90450346e+17
3.92907596e+17
3.95279572e+17
3.9755957e+17
3.9973931e+17
4.01808772e+17
4.03756051e+17
4.05567284e+17
4.07226664e+17
4.08716589e+17
4.1001792e+17
4.11110533e+17
4.1197356e+17
4.12587001e+17
4.12928661e+17
2.4541796e+16
2.89282004e+16
3.32480283e+16
3.81411048e+16
4.32953634e+16
4.88733147e+16
5.49632982e+16
6.15883666e+16
6.87183241e+16
7.62881836e+16
8.42164753e+16
9.24192835e+16
1.00818637e+17
1.09346442e+17
1.17945599e+17
1.26569578e+17
1.35181288e+17
1.43751725e+17
1.52258619e+17
1.6068523e+17
1.69019292e+17
1.7725215e+17
1.85378032e+17
1.93393474e+17
2.01296847e+17
2.09087985e+17
2.1676789e+17
2.2433849e+17
2.31802462e+17
2.39163079e+17
2.46424104e+17
2.535897e+17
2.60664368e+17
2.67652899e+17
2.74560339e+17
2.81391972e+17
2.88153309e+17
2.94850085e+17
3.01488269e+17
3.08074078e+17
3.14613995e+17
3.21114803e+17
3.27583619e+17
3.34027934e+17
3.40455671e+17
3.46875241e+17
3.53295614e+17
3.59726402e+17
3.66177955e+17
3.72661469e+17
3.79189115e+17
3.8577419e+17
3.92431287e+17
3.99176495e+17
4.05917023e+17
4.12504851e+17
4.18939789e+17
4.25222408e+17
4.31354029e+17
4.37336709e+17
4.4317322e+17
4.48867025e+17
4.54422256e+17
4.59843681e+17
4.65136675e+17
4.70307182e+17
4.75361672e+17
4.80307095e+17
4.85150832e+17
4.8990063e+17
4.94564535e+17
4.99150815e+17
5.03667867e+17
5.0812412e+17
5.12527908e+17
5.16887342e+17
5.21210156e+17
5.25503522e+17
5.2977386e+17
5.34026604e+17
5.38265946e+17
5.42494553e+17
5.46713241e+17
5.50920635e+17
5.55112779e+17
5.59282738e+17
5.63420171e+17
5.6751091e+17
5.71536543e+17
5.75474047e+17
5.79295488e+17
5.82967852e+17
5.86453045e+17
5.89708128e+17
5.92685869e+17
5.95335577e+17
5.97604434e+17
5.99438581e+17
6.00785909e+17
6.01591667e+17
2.83462957e+16
3.34720561e+16
3.90824484e+16
4.49444683e+16
5.1473156e+16
5.88888869e+16
6.72949752e+16
7.66690845e+16
8.69020866e+16
9.78445016e+16
1.09340723e+17
1.21248201e+17
1.33445414e+17
1.45833257e+17
1.58333226e+17
1.70884378e+17
1.83440121e+17
1.95965284e+17
2.08433629e+17
2.2082583e+17
2.33127862e+17
2.45329738e+17
2.57424538e+17
2.69407654e+17
2.81276223e+17
2.93028691e+17
3.04664483e+17
3.16183764e+17
3.27587256e+17
3.38876106e+17
3.50051798e+17
3.61116087e+17
3.72070963e+17
3.82918627e+17
3.93661489e+17
4.04302166e+17
4.14843503e+17
4.2528859e+17
4.35640793e+17
4.45903784e+17
4.56081583e+17
4.66178599e+17
4.76199676e+17
4.86150149e+17
4.96035899e+17
5.05863414e+17
5.15639858e+17
5.25373143e+17
5.35072011e+17
5.44746124e+17
5.54406155e+17
5.64063896e+17
5.73732366e+17
5.83425921e+17
5.93082771e+17
6.02459144e+17
6.11560045e+17
6.20391562e+17
6.28960826e+17
6.37275988e+17
6.45346183e+17
6.53181491e+17
6.60792895e+17
6.68192235e+17
6.7539215e+17
6.82406021e+17
6.89247901e+17
6.95932431e+17
7.02474751e+17
7.0889039e+17
7.15195146e+17
7.21404946e+17
7.27535678e+17
7.33603014e+17
7.39622191e+17
7.45607781e+17
7.51573413e+17
7.57531478e+17
7.63492787e+17
7.69466202e+17
7.7545822e+17
7.81472529e+17
7.87509524e+17
7.9356579e+17
7.99633556e+17
8.05700142e+17
8.11747386e+17
8.17751103e+17
8.23680582e+17
8.29498155e+17
8.35158907e+17
8.40610563e+17
8.45793627e+17
8.50641864e+17
8.55083175e+17
8.59040902e+17
8.62435693e+17
8.65187285e+17
8.67217872e+17
8.6844817e+17
3.21952224e+16
3.84931347e+16
4.50524641e+16
5.22725405e+16
6.06070171e+16
7.03383472e+16
8.15403062e+16
9.41180461e+16
1.07884118e+17
1.22622608e+17
1.38127669e+17
1.54220824e+17
1.70755327e+17
1.87614127e+17
2.0470538e+17
2.21957528e+17
2.39314828e+17
2.56733623e+17
2.74179362e+17
2.91624306e+17
3.0904577e+17
3.26424807e+17
3.43745232e+17
3.60992902e+17
3.78155191e+17
3.95220612e+17
4.12178556e+17
4.29019109e+17
4.45732935e+17
4.62311203e+17
4.78745555e+17
4.9502809e+17
5.11151381e+17
5.27108494e+17
5.42893021e+17
5.58499125e+17
5.73921583e+17
5.89155838e+17
6.04198049e+17
6.19045146e+17
6.33694884e+17
6.48145901e+17
6.62397768e+17
6.76451051e+17
6.90307366e+17
7.03969438e+17
7.17441156e+17
7.3072764e+17
7.43835298e+17
7.5677189e+17
7.69546592e+17
7.82170061e+17
7.94654487e+17
8.07013631e+17
8.19251564e+17
8.31079774e+17
8.42510233e+17
8.53555931e+17
8.64230838e+17
8.74549879e+17
8.84528906e+17
8.9418466e+17
9.03534726e+17
9.12597488e+17
9.21392064e+17
9.29938242e+17
9.38256392e+17
9.46367375e+17
9.54292425e+17
9.62053018e+17
9.69670718e+17
9.77166999e+17
9.84563038e+17
9.91879482e+17
9.99136184e+17
1.0063519e+18
1.01354395e+18
1.02072787e+18
1.02791694e+18
1.03512183e+18
1.04235e+18
1.04960528e+18
1.05688723e+18
1.06419061e+18
1.07150476e+18
1.07881298e+18
1.08609195e+18
1.09331117e+18
1.10043241e+18
1.1074094e+18
1.11418749e+18
1.1207037e+18
1.12688693e+18
1.13265859e+18
1.13793369e+18
1.14262234e+18
1.14663188e+18
1.14986903e+18
1.1522434e+18
1.15366464e+18
3.61291358e+16
4.34713322e+16
5.12822335e+16
6.02200694e+16
7.08054217e+16
8.33120106e+16
9.77491159e+16
1.13947003e+17
1.31655362e+17
1.50612037e+17
1.7057847e+17
1.91352302e+17
2.12767846e+17
2.34691394e+17
2.57015159e+17
2.79651517e+17
3.02528174e+17
3.25584347e+17
3.48767866e+17
3.72033007e+17
3.95338923e+17
4.18648499e+17
4.41927552e+17
4.65144262e+17
4.88268784e+17
5.11272992e+17
5.34130309e+17
5.56815616e+17
5.79305191e+17
6.01576694e+17
6.2360917e+17
6.45383062e+17
6.66880238e+17
6.88084018e+17
7.08979206e+17
7.29552117e+17
7.49790606e+17
7.69684092e+17
7.89223581e+17
8.08401681e+17
8.27212622e+17
8.45652264e+17
8.63718112e+17
8.81409321e+17
8.98726707e+17
9.15672752e+17
9.32251613e+17
9.48469129e+17
9.64332829e+17
9.7985194e+17
9.95037393e+17
1.00990183e+18
1.02445958e+18
1.03872666e+18
1.05276861e+18
1.06629591e+18
1.07932703e+18
1.09188122e+18
1.10397841e+18
1.11563926e+18
1.12688511e+18
1.13773798e+18
1.14822055e+18
1.15835606e+18
1.16816833e+18
1.17768166e+18
1.18692072e+18
1.19591052e+18
1.20467623e+18
1.21324307e+18
1.22163616e+18
1.22988026e+18
1.23799965e+18
1.24601778e+18
1.25395703e+18
1.26183841e+18
1.26968113e+18
1.27750226e+18
1.28531627e+18
1.29313457e+18
1.30096499e+18
1.30881121e+18
1.31667227e+18
1.32454191e+18
1.33240798e+18
1.34025188e+18
1.34804797e+18
1.355763e+18
1.36335574e+18
1.37077652e+18
1.37796717e+18
1.38486098e+18
1.39138302e+18
1.39745091e+18
1.40297587e+18
1.40786435e+18
1.41202021e+18
1.41534694e+18
1.41775118e+18
1.41914083e+18
4.01883956e+16
4.8477009e+16
5.7799424e+16
6.8826744e+16
8.20876319e+16
9.77930174e+16
1.1586978e+17
1.36078236e+17
1.5811801e+17
1.81692361e+17
2.06536929e+17
2.32427165e+17
2.59175692e+17
2.86626144e+17
3.14646648e+17
3.43124166e+17
3.71960035e+17
4.0106661e+17
4.30364831e+17
4.59782495e+17
4.8925304e+17
5.1871471e+17
5.48109992e+17
5.7738522e+17
6.06490327e+17
6.35378663e+17
6.64006884e+17
6.92334862e+17
7.20325625e+17
7.47945299e+17
7.7516306e+17
8.0195108e+17
8.28284472e+17
8.54141229e+17
8.79502154e+17
9.04350793e+17
9.28673354e+17
9.52458626e+17
9.75697897e+17
9.98384866e+17
1.02051556e+18
1.04208824e+18
1.06310333e+18
1.08356334e+18
1.10347276e+18
1.12283802e+18
1.14166742e+18
1.15997106e+18
1.17776079e+18
1.19505014e+18
1.21185431e+18
1.22819009e+18
1.24407583e+18
1.25953133e+18
1.27462219e+18
1.28916423e+18
1.30313877e+18
1.31656989e+18
1.32948202e+18
1.34190004e+18
1.35384924e+18
1.36535532e+18
1.37644437e+18
1.38714286e+18
1.3974776e+18
1.40747567e+18
1.41716434e+18
1.42657101e+18
1.43572304e+18
1.4446477e+18
1.45337192e+18
1.46192214e+18
1.47032408e+18
1.4786025e+18
1.48678089e+18
1.49488116e+18
1.50292324e+18
1.51092477e+18
1.51890057e+18
1.52686224e+18
1.53481763e+18
1.54277031e+18
1.55071905e+18
1.55865726e+18
1.56657236e+18
1.57444532e+18
1.58225007e+18
1.58995303e+18
1.59751273e+18
1.60487952e+18
1.61199543e+18
1.61879427e+18
1.62520199e+18
1.6311374e+18
1.63651329e+18
1.64123799e+18
1.64521748e+18
1.64835766e+18
1.65056761e+18
1.65175859e+18
4.41450292e+16
5.3539239e+16
6.46212524e+16
7.80910214e+16
9.44151359e+16
1.13703013e+17
1.35788878e+17
1.60366255e+17
1.87090057e+17
2.15631392e+17
2.45698441e+17
2.77039261e+17
3.09437158e+17
3.42704141e+17
3.76674857e+17
4.1120172e+17
4.46151323e+17
4.81401876e+17
5.1684145e+17
5.52366785e+17
5.87882473e+17
6.23300404e+17
6.58539366e+17
6.93524746e+17
7.2818828e+17
7.62467836e+17
7.963072e+17
8.29655865e+17
8.62468816e+17
8.94706301e+17
9.26333598e+17
9.57320773e+17
9.87642433e+17
1.01727747e+18
1.04620883e+18
1.07442323e+18
1.10191093e+18
1.12866552e+18
1.15468363e+18
1.17996478e+18
1.2045111e+18
1.2283272e+18
1.25141996e+18
1.27379833e+18
1.29547326e+18
1.31645749e+18
1.33676546e+18
1.35641318e+18
1.37541817e+18
1.39379935e+18
1.41157697e+18
1.42877253e+18
1.44540871e+18
1.4615093e+18
1.47709903e+18
1.49215334e+18
1.50659106e+18
1.52043967e+18
1.53372676e+18
1.54648003e+18
1.55872736e+18
1.57049679e+18
1.58181653e+18
1.59271498e+18
1.60322063e+18
1.61336207e+18
1.62316793e+18
1.63266676e+18
1.64188695e+18
1.6508566e+18
1.65960337e+18
1.66815427e+18
1.67653546e+18
1.68477202e+18
1.69288766e+18
1.70090439e+18
1.70884219e+18
1.71671863e+18
1.72454844e+18
1.7323431e+18
1.74011032e+18
1.74785358e+18
1.7555716e+18
1.76325784e+18
1.77089996e+18
1.77847932e+18
1.78597053e+18
1.793341e+18
1.80055061e+18
1.8075515e+18
1.81428796e+18
1.82069657e+18
1.82670659e+18
1.83224066e+18
1.83721585e+18
1.84154522e+18
1.84513975e+18
1.84791057e+18
1.84977197e+18
1.850641e+18
4.80908719e+16
5.86696411e+16
7.17491367e+16
8.79823603e+16
1.07715174e+17
1.30927204e+17
1.57351659e+17
1.86613782e+17
2.18321899e+17
2.52110408e+17
2.87652946e+17
3.24661565e+17
3.62881136e+17
4.02083281e+17
4.42061357e+17
4.82626793e+17
5.23606577e+17
5.64841605e+17
6.06185581e+17
6.47504293e+17
6.8867506e+17
7.295863e+17
7.70137114e+17
8.10236874e+17
8.49804798e+17
8.88769485e+17
9.27068442e+17
9.64647572e+17
1.00146066e+18
1.03746885e+18
1.0726401e+18
1.10694868e+18
1.14037464e+18
1.17290334e+18
1.20452495e+18
1.23523401e+18
1.26502899e+18
1.29391193e+18
1.32188804e+18
1.34896536e+18
1.37515448e+18
1.40046825e+18
1.42492151e+18
1.44853092e+18
1.4713147e+18
1.49329253e+18
1.51448535e+18
1.53491527e+18
1.55460543e+18
1.57357997e+18
1.59186387e+18
1.60948295e+18
1.62646376e+18
1.64283352e+18
1.65862e+18
1.67384711e+18
1.68842464e+18
1.70238233e+18
1.71574977e+18
1.72855647e+18
1.74083185e+18
1.75260531e+18
1.76390623e+18
1.77476397e+18
1.78520785e+18
1.79526713e+18
1.80497092e+18
1.81434816e+18
1.82342747e+18
1.83223708e+18
1.84080465e+18
1.8491571e+18
1.85732043e+18
1.86531947e+18
1.87317761e+18
1.88091651e+18
1.88855579e+18
1.89611262e+18
1.90360141e+18
1.9110333e+18
1.91841581e+18
1.92575232e+18
1.93304162e+18
1.94027745e+18
1.947448e+18
1.95453549e+18
1.96151573e+18
1.96835779e+18
1.97502368e+18
1.98146816e+18
1.98763877e+18
1.99347591e+18
1.99891327e+18
2.00387851e+18
2.00829424e+18
2.01207951e+18
2.0151516e+18
2.01742815e+18
2.01882988e+18
2.01928071e+18
5.20297888e+16
6.38750219e+16
7.91713906e+16
9.84524197e+16
1.21895845e+17
1.49329558e+17
1.80376711e+17
2.14588184e+17
2.51518484e+17
2.90756441e+17
3.31931526e+17
3.74710423e+17
4.18791305e+17
4.63898759e+17
5.0978013e+17
5.56203142e+17
6.02954447e+17
6.49838718e+17
6.96678039e+17
7.43311391e+17
7.89594119e+17
8.35397355e+17
8.80607337e+17
9.25124654e+17
9.68863422e+17
1.0117504e+18
1.05372406e+18
1.0947337e+18
1.13473847e+18
1.17370649e+18
1.21161398e+18
1.24844438e+18
1.28418761e+18
1.31883931e+18
1.35240014e+18
1.38487518e+18
1.41627334e+18
1.44660683e+18
1.47589073e+18
1.50414258e+18
1.53138196e+18
1.55763026e+18
1.58291034e+18
1.60724633e+18
1.63066341e+18
1.65318766e+18
1.67484594e+18
1.69566571e+18
1.71567501e+18
1.73490237e+18
1.75337672e+18
1.77112735e+18
1.78818389e+18
1.80457621e+18
1.82033437e+18
1.83551438e+18
1.85002273e+18
1.86389056e+18
1.87714866e+18
1.88982753e+18
1.90195741e+18
1.91356837e+18
1.92469029e+18
1.9353529e+18
1.94558573e+18
1.95541815e+18
1.96487924e+18
1.97399782e+18
1.98280227e+18
1.99132051e+18
1.99957979e+18
2.00760656e+18
2.01542629e+18
2.02306324e+18
2.03054021e+18
2.03787824e+18
2.04509635e+18
2.05221119e+18
2.05923665e+18
2.06618349e+18
2.07305894e+18
2.07986631e+18
2.08660448e+18
2.09326757e+18
2.09984443e+18
2.10631831e+18
2.11266646e+18
2.11885985e+18
2.12486288e+18
2.13063333e+18
2.13612229e+18
2.14127435e+18
2.14602805e+18
2.15031644e+18
2.15406813e+18
2.15720857e+18
2.15966181e+18
2.16135241e+18
2.16220801e+18
2.16215965e+18
5.59650909e+16
6.91574074e+16
8.68673707e+16
1.09443089e+17
1.36855753e+17
1.68763181e+17
2.04668054e+17
2.44037362e+17
2.86361345e+17
3.31172487e+17
3.78046109e+17
4.26595234e+17
4.7646527e+17
5.27330145e+17
5.78889985e+17
6.30869846e+17
6.83019049e+17
7.35110714e+17
7.86941267e+17
8.38329815e+17
8.89117307e+17
9.39165505e+17
9.88355793e+17
1.03658785e+18
1.08377824e+18
1.12985896e+18
1.17477603e+18
1.21848799e+18
1.26096461e+18
1.30218551e+18
1.34213902e+18
1.38082098e+18
1.41823375e+18
1.45438524e+18
1.4892881e+18
1.52295897e+18
1.55541778e+18
1.58668721e+18
1.61679216e+18
1.64575935e+18
1.67361691e+18
1.70039411e+18
1.72612105e+18
1.7508285e+18
1.77454768e+18
1.79731014e+18
1.81914766e+18
1.84009213e+18
1.86017555e+18
1.8794299e+18
1.89788719e+18
1.91557935e+18
1.9325383e+18
1.94879583e+18
1.96438362e+18
1.97937848e+18
1.99368668e+18
2.00734011e+18
2.02037015e+18
2.03280775e+18
2.04468348e+18
2.05602758e+18
2.06687e+18
2.07724042e+18
2.08716822e+18
2.09668252e+18
2.10581205e+18
2.1145852e+18
2.12302986e+18
2.13117335e+18
2.1390423e+18
2.14666248e+18
2.15405865e+18
2.16125431e+18
2.16827151e+18
2.17513058e+18
2.18184984e+18
2.18844526e+18
2.19493019e+18
2.20131495e+18
2.20760646e+18
2.21380791e+18
2.21991829e+18
2.22593209e+18
2.23183886e+18
2.23762289e+18
2.24326291e+18
2.24873179e+18
2.25399641e+18
2.25901751e+18
2.26374979e+18
2.26814205e+18
2.2721376e+18
2.27567495e+18
2.27868863e+18
2.28111052e+18
2.2828714e+18
2.2839028e+18
2.28413929e+18
2.28351906e+18
5.98996169e+16
7.45148592e+16
9.48110027e+16
1.20891847e+17
1.52490325e+17
1.89077892e+17
2.30025125e+17
2.74703567e+17
3.22527402e+17
3.72961883e+17
4.25519313e+17
4.79752877e+17
5.35251948e+17
5.91639347e+17
6.48570062e+17
7.05730702e+17
7.62839162e+17
8.19644148e+17
8.75924391e+17
9.31487515e+17
9.86168553e+17
1.03982821e+18
1.09235092e+18
1.14364278e+18
1.19362947e+18
1.24225416e+18
1.28947548e+18
1.33526558e+18
1.3796084e+18
1.42249793e+18
1.46393676e+18
1.50393472e+18
1.54250762e+18
1.57967626e+18
1.61546546e+18
1.64990324e+18
1.68302016e+18
1.71484873e+18
1.74542289e+18
1.77477762e+18
1.8029486e+18
1.82997191e+18
1.85588384e+18
1.88072068e+18
1.90451861e+18
1.92731361e+18
1.94914135e+18
1.9700372e+18
1.99003613e+18
2.00917276e+18
2.02748131e+18
2.04499565e+18
2.06174926e+18
2.07777522e+18
2.09310624e+18
2.10783251e+18
2.12186146e+18
2.13522525e+18
2.14795546e+18
2.1600831e+18
2.17163869e+18
2.18265236e+18
2.19315383e+18
2.20317246e+18
2.21273727e+18
2.22187687e+18
2.2306195e+18
2.23899291e+18
2.24702437e+18
2.25474046e+18
2.26216708e+18
2.26932921e+18
2.27625079e+18
2.28295451e+18
2.28946161e+18
2.29579163e+18
2.30196213e+18
2.30798842e+18
2.31388324e+18
2.31965642e+18
2.32531458e+18
2.33086074e+18
2.33629397e+18
2.34160911e+18
2.34679633e+18
2.35184092e+18
2.356723e+18
2.36141728e+18
2.36589294e+18
2.37011359e+18
2.37403734e+18
2.37761698e+18
2.38080044e+18
2.38353137e+18
2.38575005e+18
2.3873945e+18
2.38840203e+18
2.38871093e+18
2.38826255e+18
2.38700205e+18
6.38355244e+16
7.99425247e+16
1.02973385e+17
1.32735276e+17
1.6869607e+17
2.10125805e+17
2.56250634e+17
3.06334353e+17
3.59703402e+17
4.15746049e+17
4.7390471e+17
5.33669127e+17
5.94572227e+17
6.56188159e+17
7.18131556e+17
7.80057145e+17
8.41659203e+17
9.02670557e+17
9.62861058e+17
1.02203558e+18
1.08003158e+18
1.13671647e+18
1.19198473e+18
1.24575505e+18
1.2979675e+18
1.34858079e+18
1.39756975e+18
1.4449229e+18
1.49064035e+18
1.53473187e+18
1.57721515e+18
1.61811431e+18
1.65745861e+18
1.69528134e+18
1.73161883e+18
1.7665097e+18
1.79999414e+18
1.83211341e+18
1.86290934e+18
1.89242401e+18
1.92069944e+18
1.94777737e+18
1.97369911e+18
1.99850538e+18
2.02223628e+18
2.04493117e+18
2.06662871e+18
2.08736681e+18
2.10718263e+18
2.12611265e+18
2.14419265e+18
2.16145774e+18
2.1779424e+18
2.19368053e+18
2.20870539e+18
2.2231157e+18
2.23682045e+18
2.24985181e+18
2.26224121e+18
2.27401947e+18
2.28521686e+18
2.29586314e+18
2.30598763e+18
2.31561924e+18
2.32478643e+18
2.33351724e+18
2.34183925e+18
2.34977956e+18
2.35736465e+18
2.36462038e+18
2.37157182e+18
2.37824313e+18
2.38465741e+18
2.39083652e+18
2.39680087e+18
2.40256917e+18
2.40815825e+18
2.41358272e+18
2.41885469e+18
2.42398352e+18
2.42897546e+18
2.43383336e+18
2.43855632e+18
2.44313942e+18
2.44757342e+18
2.45184448e+18
2.45593397e+18
2.45981826e+18
2.46346866e+18
2.4668514e+18
2.46992773e+18
2.47265415e+18
2.47498286e+18
2.47686234e+18
2.47823819e+18
2.4790543e+18
2.47925413e+18
2.47878244e+18
2.47758712e+18
2.47562006e+18
6.77742841e+16
8.54335923e+16
1.11324608e+17
1.44911346e+17
1.85373426e+17
2.31765309e+17
2.83156328e+17
3.38690502e+17
3.97595949e+17
4.59176087e+17
5.22798976e+17
5.87889931e+17
6.53927618e+17
7.20442303e+17
7.87015012e+17
8.53276651e+17
9.1890666e+17
9.83630977e+17
1.04721937e+18
1.10948222e+18
1.17026697e+18
1.22945438e+18
1.28695469e+18
1.34270392e+18
1.39666034e+18
1.44880114e+18
1.49911943e+18
1.54762155e+18
1.59432459e+18
1.63925436e+18
1.68244351e+18
1.72393002e+18
1.76375581e+18
1.80196574e+18
1.83860658e+18
1.87372635e+18
1.90737366e+18
1.93959726e+18
1.97044564e+18
1.99996675e+18
2.02820776e+18
2.05521495e+18
2.08103355e+18
2.10570771e+18
2.12928046e+18
2.15179371e+18
2.17328824e+18
2.19380378e+18
2.21337898e+18
2.23205154e+18
2.24985821e+18
2.26683488e+18
2.28301657e+18
2.29843755e+18
2.31313132e+18
2.327202e+18
2.34056009e+18
2.35323746e+18
2.36526524e+18
2.37667388e+18
2.3874932e+18
2.39775251e+18
2.4074806e+18
2.4167058e+18
2.42545595e+18
2.43375846e+18
2.44164022e+18
2.44912756e+18
2.45624624e+18
2.46302131e+18
2.46947703e+18
2.47563673e+18
2.48152268e+18
2.4871559e+18
2.49255598e+18
2.49774085e+18
2.50272656e+18
2.50752704e+18
2.5121538e+18
2.51661568e+18
2.52091855e+18
2.52506503e+18
2.52905421e+18
2.53288134e+18
2.53653764e+18
2.54001001e+18
2.54328091e+18
2.54632817e+18
2.54912498e+18
2.55163992e+18
2.55383708e+18
2.55567631e+18
2.5571137e+18
2.55810216e+18
2.55859224e+18
2.55853323e+18
2.55787442e+18
2.55656666e+18
2.55456411e+18
2.55182514e+18
7.17167703e+16
9.09800653e+16
1.19834991e+17
1.57360877e+17
2.0242862e+17
2.5386377e+17
3.10566897e+17
3.71551238e+17
4.35937747e+17
5.02939373e+17
5.71847824e+17
6.4202543e+17
7.12900928e+17
7.8396723e+17
8.5477975e+17
9.2495436e+17
9.94164661e+17
1.06213846e+18
1.12865358e+18
1.19353326e+18
1.2566413e+18
1.31787712e+18
1.37717104e+18
1.43447977e+18
1.48978219e+18
1.54307566e+18
1.59437253e+18
1.64369731e+18
1.691084e+18
1.73657398e+18
1.7802141e+18
1.82205521e+18
1.86215079e+18
1.90055602e+18
1.93732686e+18
1.97251943e+18
2.00618946e+18
2.03839196e+18
2.06918084e+18
2.09860877e+18
2.12672701e+18
2.1535853e+18
2.17923189e+18
2.20371344e+18
2.22707512e+18
2.24936059e+18
2.27061211e+18
2.29087058e+18
2.31017559e+18
2.32856556e+18
2.34607776e+18
2.36274842e+18
2.37861278e+18
2.39370517e+18
2.40805903e+18
2.42178197e+18
2.43478559e+18
2.44710135e+18
2.45875989e+18
2.46979118e+18
2.48022451e+18
2.49008862e+18
2.49941172e+18
2.50822151e+18
2.51654517e+18
2.52440943e+18
2.53184045e+18
2.53886385e+18
2.5455046e+18
2.55178697e+18
2.55773443e+18
2.5633695e+18
2.56871362e+18
2.573787e+18
2.57860843e+18
2.58319507e+18
2.58756224e+18
2.59172317e+18
2.59568876e+18
2.59946734e+18
2.60306437e+18
2.6064822e+18
2.60971981e+18
2.61277258e+18
2.61563203e+18
2.61828569e+18
2.62071689e+18
2.62290473e+18
2.62482404e+18
2.62644542e+18
2.62773547e+18
2.62865704e+18
2.62916972e+18
2.62923042e+18
2.62879421e+18
2.62781537e+18
2.62624859e+18
2.62405049e+18
2.62118119e+18
2.61760531e+18
7.566338e+16
9.65733506e+16
1.284759e+17
1.70028438e+17
2.19774807e+17
2.76299176e+17
3.38322319e+17
4.04717183e+17
4.74490772e+17
5.46762299e+17
6.20747446e+17
6.9574906e+17
7.71151932e+17
8.46419291e+17
9.21089546e+17
9.94772435e+17
1.06714438e+18
1.13794309e+18
1.20696162e+18
1.27404222e+18
1.33907007e+18
1.40196728e+18
1.46268727e+18
1.52120948e+18
1.57753479e+18
1.63168127e+18
1.68368066e+18
1.73357526e+18
1.78141529e+18
1.82725675e+18
1.87115959e+18
1.91318626e+18
1.95340054e+18
1.99186658e+18
2.02864822e+18
2.0638084e+18
2.09740876e+18
2.12950935e+18
2.16016844e+18
2.18944237e+18
2.2173855e+18
2.2440502e+18
2.26948685e+18
2.29374391e+18
2.316868e+18
2.33890393e+18
2.35989486e+18
2.37988235e+18
2.3989065e+18
2.41700602e+18
2.43421836e+18
2.45057979e+18
2.46612547e+18
2.48088957e+18
2.49490527e+18
2.50828248e+18
2.52093341e+18
2.53288896e+18
2.54417924e+18
2.55483363e+18
2.56488083e+18
2.57434897e+18
2.58326562e+18
2.59165781e+18
2.59955207e+18
2.60697442e+18
2.61395031e+18
2.62050462e+18
2.62666159e+18
2.6324447e+18
2.63787665e+18
2.64297917e+18
2.64777292e+18
2.65227732e+18
2.65651038e+18
2.66048851e+18
2.66422631e+18
2.66773633e+18
2.67102887e+18
2.67411171e+18
2.67698988e+18
2.67966542e+18
2.68213715e+18
2.68440043e+18
2.68644702e+18
2.68826486e+18
2.68983804e+18
2.69114665e+18
2.6921669e+18
2.69287115e+18
2.69322815e+18
2.69320339e+18
2.69275954e+18
2.69185711e+18
2.69045525e+18
2.68851279e+18
2.68598945e+18
2.68284722e+18
2.67905193e+18
2.67457417e+18
7.96141512e+16
1.02204693e+17
1.37220278e+17
1.82862856e+17
2.37332664e+17
2.98960987e+17
3.66278986e+17
4.3801158e+17
5.13047211e+17
5.90410326e+17
6.69242957e+17
7.48793621e+17
8.2841029e+17
9.07534799e+17
9.85697269e+17
1.06250985e+18
1.13765973e+18
1.21090159e+18
1.28204973e+18
1.35097027e+18
1.41757359e+18
1.48180727e+18
1.54364965e+18
1.60310403e+18
1.66019364e+18
1.71495721e+18
1.76744531e+18
1.81771722e+18
1.86583832e+18
1.91187804e+18
1.95590814e+18
1.99800141e+18
2.03823057e+18
2.07666751e+18
2.1133827e+18
2.14844475e+18
2.18192008e+18
2.21387278e+18
2.24436449e+18
2.27345433e+18
2.30119893e+18
2.32765248e+18
2.35286684e+18
2.37689156e+18
2.39977407e+18
2.42155978e+18
2.44229219e+18
2.46201306e+18
2.48076251e+18
2.49857915e+18
2.51550023e+18
2.53156173e+18
2.54679845e+18
2.56124413e+18
2.57493152e+18
2.58789922e+18
2.60020537e+18
2.61180798e+18
2.62273654e+18
2.63301978e+18
2.64268578e+18
2.65176202e+18
2.66027542e+18
2.66825234e+18
2.67571864e+18
2.68269963e+18
2.68922005e+18
2.69530408e+18
2.70097521e+18
2.70625619e+18
2.71116896e+18
2.71573449e+18
2.71997267e+18
2.72390218e+18
2.72754027e+18
2.73090263e+18
2.73400312e+18
2.73685366e+18
2.73946392e+18
2.74184112e+18
2.74398982e+18
2.74591171e+18
2.74760536e+18
2.74906604e+18
2.75028559e+18
2.75125226e+18
2.75195065e+18
2.75236166e+18
2.7524626e+18
2.7522273e+18
2.75162634e+18
2.75062745e+18
2.74919601e+18
2.7472957e+18
2.74488933e+18
2.74193986e+18
2.73841164e+18
2.73427167e+18
2.72949119e+18
2.72404657e+18
8.35688677e+16
1.07865483e+17
1.46042953e+17
1.95817444e+17
2.55030591e+17
3.21750362e+17
3.94309901e+17
4.71280254e+17
5.51428799e+17
6.3368622e+17
7.17124976e+17
8.00945639e+17
8.84467193e+17
9.67118543e+17
1.04842996e+18
1.12802389e+18
1.20560534e+18
1.28095189e+18
1.35390391e+18
1.42435507e+18
1.49224361e+18
1.55754428e+18
1.62026127e+18
1.68042201e+18
1.73807181e+18
1.79326942e+18
1.8460833e+18
1.89658855e+18
1.94486446e+18
1.99099255e+18
2.03505504e+18
2.07713366e+18
2.11730877e+18
2.15565871e+18
2.19225936e+18
2.2271838e+18
2.26050217e+18
2.29228159e+18
2.32258609e+18
2.35147675e+18
2.37901169e+18
2.40524626e+18
2.43023317e+18
2.4540226e+18
2.47666241e+18
2.49819828e+18
2.51867386e+18
2.53813095e+18
2.55660964e+18
2.57414842e+18
2.59078436e+18
2.60655319e+18
2.62148942e+18
2.63562643e+18
2.64899654e+18
2.66163108e+18
2.67360424e+18
2.68486485e+18
2.69544173e+18
2.70536296e+18
2.71465597e+18
2.72334756e+18
2.73146398e+18
2.73903094e+18
2.7460736e+18
2.75261659e+18
2.75868398e+18
2.76429921e+18
2.76948507e+18
2.77426361e+18
2.77865601e+18
2.78268253e+18
2.78636232e+18
2.78971331e+18
2.79275203e+18
2.79549345e+18
2.79795075e+18
2.80013516e+18
2.80205573e+18
2.80371912e+18
2.80512939e+18
2.80628778e+18
2.80719257e+18
2.80783883e+18
2.80821836e+18
2.80831956e+18
2.80812735e+18
2.80762323e+18
2.80678536e+18
2.80558872e+18
2.80400542e+18
2.80200507e+18
2.79955536e+18
2.79662273e+18
2.79317323e+18
2.78917355e+18
2.78459222e+18
2.77940097e+18
2.77357611e+18
2.76709956e+18
8.75271436e+16
1.13547468e+17
1.54920798e+17
2.0885004e+17
2.72804628e+17
3.44579947e+17
4.22304239e+17
5.04390712e+17
5.89485137e+17
6.76427198e+17
7.64225201e+17
8.52038999e+17
9.39166732e+17
1.02503269e+18
1.10917517e+18
1.19123401e+18
1.27093798e+18
1.34809245e+18
1.42256748e+18
1.49428696e+18
1.56321858e+18
1.62936512e+18
1.69275679e+18
1.75344477e+18
1.81149574e+18
1.86698744e+18
1.92000499e+18
1.97063799e+18
2.01897826e+18
2.065118e+18
2.10914851e+18
2.15115916e+18
2.19123669e+18
2.22946472e+18
2.26592346e+18
2.30068952e+18
2.33383589e+18
2.36543193e+18
2.39554346e+18
2.42423293e+18
2.45155951e+18
2.47757931e+18
2.50234555e+18
2.52590877e+18
2.54831696e+18
2.56961583e+18
2.58984892e+18
2.60905778e+18
2.62728218e+18
2.6445602e+18
2.66092842e+18
2.67642203e+18
2.69107493e+18
2.7049199e+18
2.71798864e+18
2.73031183e+18
2.74196613e+18
2.75289792e+18
2.76313535e+18
2.77270582e+18
2.78163609e+18
2.78995229e+18
2.79768e+18
2.80484426e+18
2.81146955e+18
2.81757985e+18
2.82319852e+18
2.82834832e+18
2.83305136e+18
2.83732896e+18
2.84120162e+18
2.84468887e+18
2.84780915e+18
2.85057968e+18
2.85301627e+18
2.85513317e+18
2.85694289e+18
2.85845598e+18
2.85968084e+18
2.86062355e+18
2.8612876e+18
2.86167378e+18
2.86177995e+18
2.86160092e+18
2.8611283e+18
2.86035048e+18
2.85925254e+18
2.85781635e+18
2.85602067e+18
2.85384135e+18
2.85125169e+18
2.84822285e+18
2.84472444e+18
2.84072526e+18
2.83619418e+18
2.8311012e+18
2.82541867e+18
2.81912263e+18
2.81219423e+18
2.80462067e+18
9.14884921e+16
1.19242891e+17
1.63832792e+17
2.219229e+17
2.90598178e+17
3.67373365e+17
4.50166472e+17
5.37230693e+17
6.27091407e+17
7.18501508e+17
8.10411576e+17
9.01948461e+17
9.92397619e+17
1.08118663e+18
1.167869e+18
1.25210808e+18
1.33366139e+18
1.4123658e+18
1.48812378e+18
1.56089102e+18
1.63066554e+18
1.69747823e+18
1.76138493e+18
1.82245977e+18
1.88078973e+18
1.93647023e+18
1.98960173e+18
2.04028691e+18
2.08862871e+18
2.13472869e+18
2.17868594e+18
2.22059628e+18
2.26055174e+18
2.29864027e+18
2.33494552e+18
2.36954688e+18
2.40251952e+18
2.43393446e+18
2.4638588e+18
2.49235587e+18
2.51948549e+18
2.54530411e+18
2.56986512e+18
2.59321901e+18
2.6154136e+18
2.63649429e+18
2.65650419e+18
2.67548437e+18
2.69347403e+18
2.71051066e+18
2.72663019e+18
2.74186717e+18
2.75625484e+18
2.76982532e+18
2.78260963e+18
2.79463782e+18
2.80598863e+18
2.81660605e+18
2.8265175e+18
2.83574972e+18
2.84432876e+18
2.85228009e+18
2.85962863e+18
2.86639874e+18
2.87261426e+18
2.87829846e+18
2.88347407e+18
2.88816317e+18
2.89238717e+18
2.89616672e+18
2.89952162e+18
2.9024707e+18
2.9050317e+18
2.90722114e+18
2.90905411e+18
2.91054418e+18
2.91170315e+18
2.91254088e+18
2.91306514e+18
2.91328134e+18
2.91319242e+18
2.9127986e+18
2.91209727e+18
2.91108285e+18
2.90974667e+18
2.90807694e+18
2.90605872e+18
2.90367403e+18
2.90090199e+18
2.89771905e+18
2.89409938e+18
2.89001533e+18
2.88543806e+18
2.88033834e+18
2.87468744e+18
2.86845827e+18
2.86162659e+18
2.85417241e+18
2.84608138e+18
2.83734582e+18
9.5452375e+16
1.24944568e+17
1.72759991e+17
2.350025e+17
3.0836158e+17
3.90064499e+17
4.77815224e+17
5.69706414e+17
6.64145779e+17
7.59804794e+17
8.55583427e+17
9.50583449e+17
1.04408557e+18
1.13552799e+18
1.2244858e+18
1.31065103e+18
1.39381391e+18
1.47384565e+18
1.55068282e+18
1.6243138e+18
1.69476704e+18
1.76210117e+18
1.82639679e+18
1.88774988e+18
1.94626641e+18
2.00205814e+18
2.0552394e+18
2.10592462e+18
2.15422651e+18
2.20025474e+18
2.24411507e+18
2.28590874e+18
2.32573216e+18
2.36367675e+18
2.39982892e+18
2.43427018e+18
2.46707725e+18
2.49832232e+18
2.52807327e+18
2.55639388e+18
2.58334416e+18
2.60898056e+18
2.63335625e+18
2.6565214e+18
2.67852337e+18
2.699407e+18
2.71921483e+18
2.73798727e+18
2.75576283e+18
2.77257832e+18
2.78846897e+18
2.8034686e+18
2.81760977e+18
2.83092388e+18
2.84344126e+18
2.85519129e+18