/*--------------------------------*- C++ -*----------------------------------*\
| =========                 |                                                 |
| \\      /  F ield         | OpenFOAM Extend Project: Open source CFD        |
|  \\    /   O peration     | Version:  1.6-ext                               |
|   \\  /    A nd           | Web:      www.extend-project.de                 |
|    \\/     M anipulation  |                                                 |
\*---------------------------------------------------------------------------*/
FoamFile
{
    version     2.0;
    format      ascii;
    class       volScalarField;
    location    "4000";
    object      prec4;
}
// * * * * * * * * * * * * * * * * * * * * * * * * * * * * * * * * * * * * * //

dimensions      [0 -3 0 0 0 0 0];

internalField   nonuniform List<scalar> 
40000
(
1.34621444e+15
1.59806617e+15
1.85070796e+15
2.10522681e+15
2.3622139e+15
2.62320758e+15
2.88253603e+15
3.1422281e+15
3.40224805e+15
3.66260167e+15
3.92332182e+15
4.18445671e+15
4.44606278e+15
4.7082003e+15
4.97093066e+15
5.23431469e+15
5.49841157e+15
5.7632782e+15
6.02896877e+15
6.29553453e+15
6.56302362e+15
6.83148097e+15
7.10094821e+15
7.37146356e+15
7.64306177e+15
7.91577398e+15
8.18962755e+15
8.46464595e+15
8.74084852e+15
9.01825028e+15
9.29686165e+15
9.57668824e+15
9.85773056e+15
1.01399837e+16
1.04234372e+16
1.07080745e+16
1.09938728e+16
1.1280803e+16
1.1568829e+16
1.18579078e+16
1.21479891e+16
1.24390154e+16
1.27309213e+16
1.3023634e+16
1.33170725e+16
1.36111484e+16
1.39057651e+16
1.42008181e+16
1.44961952e+16
1.47917765e+16
1.50874342e+16
1.53830332e+16
1.56784308e+16
1.59744721e+16
1.62712274e+16
1.65680821e+16
1.68645811e+16
1.7160367e+16
1.74551416e+16
1.77486412e+16
1.8040622e+16
1.833085e+16
1.86190957e+16
1.89051299e+16
1.91887222e+16
1.94696391e+16
1.97476437e+16
2.00224954e+16
2.02939493e+16
2.05617566e+16
2.08256644e+16
2.10854157e+16
2.13407494e+16
2.15914006e+16
2.18371001e+16
2.20775746e+16
2.23125463e+16
2.2541733e+16
2.27648475e+16
2.29815974e+16
2.31916845e+16
2.33948045e+16
2.35906462e+16
2.37788908e+16
2.39592117e+16
2.41312729e+16
2.42947289e+16
2.44492237e+16
2.45943901e+16
2.47298489e+16
2.48552089e+16
2.49700664e+16
2.50740053e+16
2.51665983e+16
2.52474077e+16
2.53159874e+16
2.53718856e+16
2.54146476e+16
2.54438195e+16
2.54589517e+16
1.59583442e+15
1.89431563e+15
2.19504686e+15
2.50640123e+15
2.81694832e+15
3.1267578e+15
3.43561973e+15
3.74316123e+15
4.04921464e+15
4.35374146e+15
4.65678041e+15
4.95841551e+15
5.25875655e+15
5.55792742e+15
5.85605896e+15
6.15328478e+15
6.44973895e+15
6.74555458e+15
7.04086331e+15
7.33579505e+15
7.63047796e+15
7.92503868e+15
8.2196024e+15
8.51429317e+15
8.80923395e+15
9.10454677e+15
9.40035277e+15
9.69677212e+15
9.99392391e+15
1.0291926e+16
1.05908946e+16
1.0890944e+16
1.11921861e+16
1.149473e+16
1.17986811e+16
1.21041406e+16
1.24112047e+16
1.27199642e+16
1.30305028e+16
1.3342897e+16
1.36572149e+16
1.3973515e+16
1.42918455e+16
1.46122434e+16
1.49347329e+16
1.52593252e+16
1.55860169e+16
1.59147894e+16
1.62456078e+16
1.65784201e+16
1.69131565e+16
1.72497283e+16
1.75880274e+16
1.79286951e+16
1.82726736e+16
1.86194602e+16
1.89685877e+16
1.93196155e+16
1.9672122e+16
2.00256989e+16
2.03799461e+16
2.07344683e+16
2.10888717e+16
2.14427615e+16
2.179574e+16
2.21474052e+16
2.24973496e+16
2.28451597e+16
2.31904154e+16
2.35326896e+16
2.38715482e+16
2.42065505e+16
2.4537249e+16
2.48631897e+16
2.51839128e+16
2.54989522e+16
2.58078367e+16
2.61100892e+16
2.64052275e+16
2.6692764e+16
2.69722054e+16
2.72430524e+16
2.75047996e+16
2.77569343e+16
2.79989365e+16
2.82302775e+16
2.84504199e+16
2.86588164e+16
2.88549097e+16
2.90381326e+16
2.92079077e+16
2.93636492e+16
2.95047636e+16
2.96306526e+16
2.97407149e+16
2.98343499e+16
2.99109592e+16
2.9969953e+16
3.00107428e+16
3.00327767e+16
1.84543972e+15
2.19053656e+15
2.55073097e+15
2.91241541e+15
3.27577729e+15
3.6390312e+15
4.00104151e+15
4.36112766e+15
4.7189028e+15
5.07416464e+15
5.4268259e+15
5.77687115e+15
6.12433019e+15
6.46926203e+15
6.81174488e+15
7.15187027e+15
7.48973943e+15
7.82546116e+15
8.15915068e+15
8.49092891e+15
8.82092227e+15
9.14926256e+15
9.47608701e+15
9.80153843e+15
1.01257652e+16
1.04489216e+16
1.07711676e+16
1.10926689e+16
1.14135971e+16
1.17341292e+16
1.20544475e+16
1.23747395e+16
1.26951967e+16
1.30160151e+16
1.33373936e+16
1.36595339e+16
1.39826392e+16
1.43069135e+16
1.46325603e+16
1.49597818e+16
1.5288777e+16
1.56197409e+16
1.59528628e+16
1.62883246e+16
1.66262994e+16
1.69669495e+16
1.73104246e+16
1.76568602e+16
1.80063754e+16
1.83590708e+16
1.87150267e+16
1.90743008e+16
1.94369258e+16
1.98033807e+16
2.01753783e+16
2.05525556e+16
2.09345522e+16
2.13210057e+16
2.17115478e+16
2.21058013e+16
2.25033768e+16
2.29038708e+16
2.33068635e+16
2.37119168e+16
2.41185733e+16
2.45263549e+16
2.49347619e+16
2.53432724e+16
2.57513419e+16
2.61584028e+16
2.65638646e+16
2.69671138e+16
2.73675141e+16
2.77644069e+16
2.81571118e+16
2.85449269e+16
2.89271295e+16
2.9302977e+16
2.96717073e+16
3.00325397e+16
3.03846755e+16
3.07272993e+16
3.10595796e+16
3.13806701e+16
3.16897111e+16
3.19858319e+16
3.22681525e+16
3.25357878e+16
3.27878512e+16
3.30234606e+16
3.3241745e+16
3.34418534e+16
3.3622964e+16
3.37842946e+16
3.39251131e+16
3.40447462e+16
3.41425818e+16
3.42180738e+16
3.42707167e+16
3.4300087e+16
2.09829678e+15
2.50016772e+15
2.91079571e+15
3.32644908e+15
3.7448595e+15
4.16406144e+15
4.58268267e+15
4.99978031e+15
5.41469965e+15
5.8269772e+15
6.23627868e+15
6.64236049e+15
7.04504544e+15
7.44420748e+15
7.83976141e+15
8.23165605e+15
8.61986928e+15
9.00440442e+15
9.38528756e+15
9.76256544e+15
1.01363039e+16
1.05065865e+16
1.08735138e+16
1.12372024e+16
1.15977845e+16
1.19554074e+16
1.23102331e+16
1.26624377e+16
1.30122116e+16
1.33597587e+16
1.37052964e+16
1.40490546e+16
1.4391276e+16
1.4732215e+16
1.50721371e+16
1.54113184e+16
1.57500446e+16
1.60886101e+16
1.64273169e+16
1.67664734e+16
1.71063929e+16
1.74473926e+16
1.77897915e+16
1.81339088e+16
1.84800621e+16
1.88285652e+16
1.91797259e+16
1.95338437e+16
1.98912074e+16
2.02520919e+16
2.06167557e+16
2.09854379e+16
2.13583541e+16
2.17358119e+16
2.21204673e+16
2.251213e+16
2.2910599e+16
2.33156575e+16
2.37270701e+16
2.4144579e+16
2.45679013e+16
2.49967256e+16
2.54307102e+16
2.58694796e+16
2.63126234e+16
2.67596934e+16
2.72102024e+16
2.76636222e+16
2.81193824e+16
2.85768689e+16
2.9035423e+16
2.94943408e+16
2.99528717e+16
3.04102187e+16
3.08655374e+16
3.1317936e+16
3.17664754e+16
3.22101686e+16
3.26479818e+16
3.30788344e+16
3.35015996e+16
3.39151062e+16
3.43181397e+16
3.47094451e+16
3.508773e+16
3.54516694e+16
3.57999123e+16
3.61310899e+16
3.6443827e+16
3.67367563e+16
3.70085366e+16
3.72578748e+16
3.74835513e+16
3.76844493e+16
3.78595841e+16
3.80081312e+16
3.81294449e+16
3.82230711e+16
3.82887178e+16
3.83262858e+16
2.35638424e+15
2.81516252e+15
3.28083833e+15
3.75291193e+15
4.22914728e+15
4.70770764e+15
5.18712605e+15
5.66621614e+15
6.1439977e+15
6.61964802e+15
7.09247183e+15
7.56188218e+15
8.02738673e+15
8.48857712e+15
8.94511972e+15
9.39674761e+15
9.84325323e+15
1.02844819e+16
1.07203261e+16
1.11507207e+16
1.15756385e+16
1.19950868e+16
1.24091045e+16
1.28177595e+16
1.32211471e+16
1.36193879e+16
1.40126269e+16
1.44010323e+16
1.47847947e+16
1.51641264e+16
1.55392604e+16
1.59104505e+16
1.62779701e+16
1.66421118e+16
1.70031871e+16
1.73615252e+16
1.77174726e+16
1.80713924e+16
1.84236628e+16
1.87746765e+16
1.91248395e+16
1.94745694e+16
1.98242941e+16
2.01744502e+16
2.0525481e+16
2.08778342e+16
2.123196e+16
2.15883086e+16
2.19473272e+16
2.23094568e+16
2.26751297e+16
2.3044765e+16
2.34187647e+16
2.37971695e+16
2.41837002e+16
2.4578362e+16
2.49811436e+16
2.53920133e+16
2.58109146e+16
2.62377623e+16
2.66724389e+16
2.71147903e+16
2.75646229e+16
2.80216991e+16
2.84857345e+16
2.89563945e+16
2.94332907e+16
2.99159781e+16
3.04039518e+16
3.08966445e+16
3.13934237e+16
3.18935887e+16
3.23963686e+16
3.29009197e+16
3.34063234e+16
3.3911584e+16
3.44156269e+16
3.49172966e+16
3.54153553e+16
3.59084815e+16
3.63952693e+16
3.68742277e+16
3.73437815e+16
3.78022726e+16
3.82479631e+16
3.86790409e+16
3.90936276e+16
3.94897902e+16
3.98655582e+16
4.02189458e+16
4.05479814e+16
4.08507455e+16
4.11254167e+16
4.13703263e+16
4.15840184e+16
4.17653133e+16
4.19133634e+16
4.20276999e+16
4.21082275e+16
4.21552645e+16
2.62138599e+15
3.13798166e+15
3.6630049e+15
4.19539197e+15
4.73366485e+15
5.27627312e+15
5.82168166e+15
6.36841306e+15
6.91507831e+15
7.46040113e+15
8.00323417e+15
8.5425664e+15
9.07752266e+15
9.60735789e+15
1.01314477e+16
1.06492775e+16
1.11604306e+16
1.16645772e+16
1.21614644e+16
1.26509063e+16
1.31327765e+16
1.36070013e+16
1.40735538e+16
1.45324493e+16
1.49837415e+16
1.54275196e+16
1.58639058e+16
1.6293053e+16
1.67151441e+16
1.713039e+16
1.75390291e+16
1.79413267e+16
1.83375738e+16
1.87280871e+16
1.91132079e+16
1.94933022e+16
1.98687597e+16
2.02399931e+16
2.06074377e+16
2.09715503e+16
2.13328081e+16
2.16917081e+16
2.20487652e+16
2.24045113e+16
2.2759493e+16
2.31142702e+16
2.34694137e+16
2.3825503e+16
2.41831232e+16
2.45428625e+16
2.49053083e+16
2.52710437e+16
2.5640643e+16
2.6014246e+16
2.63956992e+16
2.67857143e+16
2.71844798e+16
2.75921634e+16
2.80089078e+16
2.84348257e+16
2.88699954e+16
2.93144558e+16
2.9768202e+16
3.02311803e+16
3.07032833e+16
3.11843454e+16
3.16741378e+16
3.21723639e+16
3.26786543e+16
3.31925624e+16
3.37135595e+16
3.42410302e+16
3.47742679e+16
3.531247e+16
3.58547333e+16
3.64000499e+16
3.69473018e+16
3.74952575e+16
3.80425664e+16
3.85877556e+16
3.91292252e+16
3.96652452e+16
4.01939525e+16
4.07133495e+16
4.12213045e+16
4.17155543e+16
4.21937108e+16
4.26532722e+16
4.30916411e+16
4.35061511e+16
4.38941038e+16
4.42528193e+16
4.4579701e+16
4.4872317e+16
4.51284969e+16
4.53464412e+16
4.55248333e+16
4.56629517e+16
4.57607282e+16
4.58188468e+16
2.88837834e+15
3.46964148e+15
4.05895745e+15
4.65685798e+15
5.26268819e+15
5.87512175e+15
6.49245037e+15
7.11279844e+15
7.7342771e+15
8.35508768e+15
8.97358372e+15
9.58830201e+15
1.01979717e+16
1.08015095e+16
1.13980069e+16
1.19867133e+16
1.25670181e+16
1.31384328e+16
1.37005751e+16
1.42531541e+16
1.47959582e+16
1.53288448e+16
1.58517308e+16
1.63645866e+16
1.68674297e+16
1.73603205e+16
1.78433587e+16
1.83166809e+16
1.87804581e+16
1.92348948e+16
1.96802273e+16
2.01167233e+16
2.05446812e+16
2.09644296e+16
2.13763271e+16
2.17807616e+16
2.21781505e+16
2.25689401e+16
2.29536049e+16
2.33326476e+16
2.37065979e+16
2.40760122e+16
2.4441472e+16
2.48035835e+16
2.51629753e+16
2.55202976e+16
2.58762196e+16
2.62314281e+16
2.65866239e+16
2.69425199e+16
2.72998373e+16
2.76593017e+16
2.8021639e+16
2.838757e+16
2.87598866e+16
2.91405945e+16
2.95300763e+16
2.99286974e+16
3.03368011e+16
3.07547033e+16
3.11826876e+16
3.16209993e+16
3.20698401e+16
3.2529362e+16
3.29996616e+16
3.34807739e+16
3.39726658e+16
3.44752302e+16
3.49882794e+16
3.55115387e+16
3.60446394e+16
3.65871126e+16
3.71383821e+16
3.76977571e+16
3.82644261e+16
3.88374484e+16
3.94157478e+16
3.99981042e+16
4.05831463e+16
4.11693435e+16
4.17549982e+16
4.2338238e+16
4.29170083e+16
4.3489066e+16
4.40519747e+16
4.46031021e+16
4.51396216e+16
4.56585186e+16
4.6156605e+16
4.66305437e+16
4.70768873e+16
4.74921334e+16
4.78728022e+16
4.82155395e+16
4.85172462e+16
4.87752377e+16
4.89874236e+16
4.91525077e+16
4.92701548e+16
4.9341212e+16
3.15935216e+15
3.81049204e+15
4.46982667e+15
5.13941109e+15
5.81918533e+15
6.5078015e+15
7.20318321e+15
7.90292814e+15
8.60457863e+15
9.30579046e+15
1.00044273e+16
1.06986038e+16
1.1386696e+16
1.20673308e+16
1.27393655e+16
1.34018622e+16
1.40540616e+16
1.46953574e+16
1.53252739e+16
1.59434463e+16
1.65496033e+16
1.71435539e+16
1.77251756e+16
1.82944054e+16
1.88512327e+16
1.93956938e+16
1.99278677e+16
2.04478732e+16
2.09558663e+16
2.1452039e+16
2.19366183e+16
2.24098654e+16
2.28720753e+16
2.33235771e+16
2.37647333e+16
2.41959407e+16
2.46176295e+16
2.5030264e+16
2.54343422e+16
2.58303958e+16
2.62189899e+16
2.66007221e+16
2.69762226e+16
2.73461526e+16
2.77112037e+16
2.80720966e+16
2.84295789e+16
2.87844239e+16
2.91374278e+16
2.94894071e+16
2.98411956e+16
3.01936405e+16
3.05475984e+16
3.09039296e+16
3.12651157e+16
3.16340365e+16
3.20112544e+16
3.239732e+16
3.27927675e+16
3.31981088e+16
3.3613828e+16
3.40403753e+16
3.44781605e+16
3.49275466e+16
3.53888425e+16
3.58622965e+16
3.63480882e+16
3.68463211e+16
3.7357015e+16
3.78800973e+16
3.84153952e+16
3.89626268e+16
3.95213919e+16
4.00911637e+16
4.06712785e+16
4.12609261e+16
4.18591398e+16
4.24647856e+16
4.30765506e+16
4.36929324e+16
4.43122259e+16
4.49325118e+16
4.55516436e+16
4.61672357e+16
4.67766516e+16
4.73769946e+16
4.79651012e+16
4.85375393e+16
4.90906144e+16
4.96203859e+16
5.01226997e+16
5.05932403e+16
5.10276106e+16
5.14214454e+16
5.1770565e+16
5.20711765e+16
5.23201214e+16
5.25151761e+16
5.26553621e+16
5.27413564e+16
3.43422866e+15
4.16064536e+15
4.89622149e+15
5.6441757e+15
6.40459406e+15
7.1757515e+15
7.95498006e+15
8.73924238e+15
9.52548815e+15
1.03108596e+16
1.10927957e+16
1.18690714e+16
1.26377971e+16
1.3397397e+16
1.41465751e+16
1.48842796e+16
1.56096664e+16
1.63220661e+16
1.70209553e+16
1.7705932e+16
1.83766948e+16
1.90330266e+16
1.96747812e+16
2.03018735e+16
2.09142708e+16
2.15119876e+16
2.20950813e+16
2.26636489e+16
2.32178254e+16
2.37577825e+16
2.42837278e+16
2.47959054e+16
2.52945951e+16
2.57801135e+16
2.62528141e+16
2.6713088e+16
2.71613641e+16
2.759811e+16
2.8023832e+16
2.84390754e+16
2.88444245e+16
2.92405029e+16
2.96279725e+16
3.00075336e+16
3.03799239e+16
3.07459172e+16
3.11063225e+16
3.14619819e+16
3.18137688e+16
3.21625853e+16
3.25093594e+16
3.28550412e+16
3.32005988e+16
3.35470134e+16
3.38963643e+16
3.42524108e+16
3.46158786e+16
3.4987488e+16
3.53679497e+16
3.57579584e+16
3.61581877e+16
3.65692828e+16
3.69918543e+16
3.74264709e+16
3.78736514e+16
3.83338573e+16
3.88074842e+16
3.92948531e+16
3.97962013e+16
4.03116729e+16
4.08413094e+16
4.13850387e+16
4.19426653e+16
4.25138584e+16
4.30981412e+16
4.36948779e+16
4.43032616e+16
4.49223006e+16
4.55508038e+16
4.61873662e+16
4.68303526e+16
4.74778803e+16
4.81278021e+16
4.87776874e+16
4.94248039e+16
5.00661e+16
5.06981883e+16
5.13173336e+16
5.1919447e+16
5.25000891e+16
5.30544895e+16
5.35775867e+16
5.40640987e+16
5.45086336e+16
5.49058522e+16
5.52506954e+16
5.55386889e+16
5.57663415e+16
5.59316169e+16
5.60345919e+16
3.71290056e+15
4.52003328e+15
5.33825337e+15
6.17131891e+15
7.01887855e+15
7.87844469e+15
8.74656022e+15
9.61949411e+15
1.04936356e+16
1.1365699e+16
1.22328107e+16
1.30925269e+16
1.39428121e+16
1.47819974e+16
1.56087326e+16
1.64219363e+16
1.72207511e+16
1.80045028e+16
1.87726668e+16
1.95248396e+16
2.02607162e+16
2.0980072e+16
2.16827493e+16
2.23686465e+16
2.30377105e+16
2.36899318e+16
2.43253404e+16
2.4944004e+16
2.55460265e+16
2.61315482e+16
2.67007454e+16
2.72538315e+16
2.77910579e+16
2.83127146e+16
2.88191318e+16
2.93106808e+16
2.97877749e+16
3.02508706e+16
3.07004681e+16
3.11371121e+16
3.15613923e+16
3.19739436e+16
3.23754459e+16
3.27666241e+16
3.31482477e+16
3.35211294e+16
3.38861249e+16
3.42441306e+16
3.45960822e+16
3.49429522e+16
3.52857474e+16
3.5625505e+16
3.5963289e+16
3.63001855e+16
3.66378087e+16
3.6980793e+16
3.73300101e+16
3.76863338e+16
3.80506351e+16
3.84237768e+16
3.8806607e+16
3.91999531e+16
3.9604614e+16
4.00213534e+16
4.0450891e+16
4.08938944e+16
4.13509701e+16
4.18226539e+16
4.23094008e+16
4.28115749e+16
4.33294381e+16
4.38631386e+16
4.4412699e+16
4.49780037e+16
4.55587854e+16
4.61546112e+16
4.67648676e+16
4.73887447e+16
4.80252195e+16
4.86730376e+16
4.93306935e+16
4.99964099e+16
5.06681153e+16
5.13434194e+16
5.20195882e+16
5.26935178e+16
5.33617084e+16
5.40202398e+16
5.46647515e+16
5.52904294e+16
5.58920069e+16
5.64637844e+16
5.699968e+16
5.74933229e+16
5.79382064e+16
5.83279219e+16
5.86564972e+16
5.8918877e+16
5.91115551e+16
5.92335175e+16
3.9952413e+15
4.8884344e+15
5.79558725e+15
6.72016908e+15
7.66076346e+15
8.61377085e+15
9.57480995e+15
1.05394616e+16
1.15036432e+16
1.24637713e+16
1.34168064e+16
1.43602317e+16
1.52920007e+16
1.62104724e+16
1.71143444e+16
1.80025919e+16
1.88744129e+16
1.97291827e+16
2.05664161e+16
2.13857378e+16
2.21868587e+16
2.29695585e+16
2.37336726e+16
2.4479083e+16
2.52057117e+16
2.59135172e+16
2.66024921e+16
2.72726625e+16
2.79240882e+16
2.85568637e+16
2.91711192e+16
2.9767023e+16
3.03447827e+16
3.09046472e+16
3.14469088e+16
3.19719046e+16
3.24800185e+16
3.29716822e+16
3.34473768e+16
3.39076334e+16
3.43530344e+16
3.47842137e+16
3.5201857e+16
3.56067018e+16
3.59995373e+16
3.63812037e+16
3.6752591e+16
3.71146382e+16
3.74683311e+16
3.78147006e+16
3.81548195e+16
3.84898e+16
3.8820789e+16
3.91489642e+16
3.94754318e+16
3.98056942e+16
4.01407541e+16
4.04816237e+16
4.08293197e+16
4.11848578e+16
4.15492466e+16
4.19234812e+16
4.23085359e+16
4.27053563e+16
4.31148511e+16
4.35378836e+16
4.39752615e+16
4.44277277e+16
4.48959489e+16
4.5380505e+16
4.58818769e+16
4.64004342e+16
4.6936422e+16
4.74899472e+16
4.80609636e+16
4.86492565e+16
4.92544262e+16
4.98758703e+16
5.05127648e+16
5.11640431e+16
5.18283743e+16
5.25041384e+16
5.31894001e+16
5.38818791e+16
5.45789194e+16
5.5277455e+16
5.59739744e+16
5.66644841e+16
5.73444735e+16
5.80088836e+16
5.86520852e+16
5.92678731e+16
5.98494867e+16
6.03896736e+16
6.0880814e+16
6.13151372e+16
6.16850652e+16
6.19837453e+16
6.22058217e+16
6.23486755e+16
4.28111117e+15
5.26549855e+15
6.26751555e+15
7.28939012e+15
8.32804462e+15
9.37849769e+15
1.04353898e+16
1.14936863e+16
1.25489701e+16
1.35975251e+16
1.46363126e+16
1.56628996e+16
1.66753677e+16
1.76722219e+16
1.86523058e+16
1.96147288e+16
2.05588045e+16
2.14840018e+16
2.23899061e+16
2.32761899e+16
2.41425906e+16
2.49888953e+16
2.58149302e+16
2.66205533e+16
2.74056514e+16
2.81701379e+16
2.89139536e+16
2.96370674e+16
3.03394786e+16
3.10212196e+16
3.16823584e+16
3.2323002e+16
3.29432987e+16
3.35434416e+16
3.41236706e+16
3.46842752e+16
3.52255965e+16
3.57480291e+16
3.6252023e+16
3.67380844e+16
3.72067775e+16
3.76587245e+16
3.80946067e+16
3.85151644e+16
3.89211967e+16
3.93135613e+16
3.96931733e+16
4.00610046e+16
4.04180816e+16
4.07654836e+16
4.11043401e+16
4.14358277e+16
4.17611663e+16
4.20816146e+16
4.23977399e+16
4.27159072e+16
4.30372377e+16
4.33628689e+16
4.36939502e+16
4.40316373e+16
4.43770864e+16
4.47314472e+16
4.50958563e+16
4.54714289e+16
4.58592506e+16
4.62603682e+16
4.66757802e+16
4.71064258e+16
4.75531748e+16
4.80168149e+16
4.849804e+16
4.89974367e+16
4.95154704e+16
5.00524705e+16
5.06086152e+16
5.11839145e+16
5.17781926e+16
5.23910686e+16
5.30219364e+16
5.36699423e+16
5.433396e+16
5.50125644e+16
5.57040014e+16
5.6406155e+16
5.71165107e+16
5.78321153e+16
5.8549532e+16
5.92647935e+16
5.99733514e+16
6.06700267e+16
6.13489634e+16
6.20035931e+16
6.26266199e+16
6.32100409e+16
6.37452268e+16
6.4223095e+16
6.46344267e+16
6.4970411e+16
6.5223517e+16
6.5389013e+16
4.57036145e+15
5.65077174e+15
6.75304425e+15
7.87717089e+15
9.01790176e+15
1.01687066e+16
1.13232793e+16
1.24761037e+16
1.36226061e+16
1.47591239e+16
1.5882796e+16
1.69914293e+16
1.80833664e+16
1.91573666e+16
2.0212505e+16
2.12480896e+16
2.22635963e+16
2.3258619e+16
2.42328325e+16
2.51859655e+16
2.61177827e+16
2.70280729e+16
2.79166426e+16
2.87833127e+16
2.96279185e+16
3.04503114e+16
3.1250362e+16
3.20279639e+16
3.27830379e+16
3.35155368e+16
3.42254494e+16
3.49128052e+16
3.55776784e+16
3.62201914e+16
3.68405185e+16
3.7438889e+16
3.80155895e+16
3.85709666e+16
3.91054288e+16
3.96194478e+16
4.01135603e+16
4.05883683e+16
4.10445403e+16
4.14828112e+16
4.19039824e+16
4.23089214e+16
4.26985608e+16
4.30738977e+16
4.34359915e+16
4.37859626e+16
4.4124989e+16
4.44543042e+16
4.47751927e+16
4.50889861e+16
4.53956881e+16
4.57025243e+16
4.60107236e+16
4.63215385e+16
4.66362401e+16
4.69561134e+16
4.72824506e+16
4.76165453e+16
4.79596847e+16
4.83131425e+16
4.86781695e+16
4.90559852e+16
4.94477673e+16
4.98546415e+16
5.027767e+16
5.07178395e+16
5.11760482e+16
5.16530924e+16
5.2149652e+16
5.26662751e+16
5.32033618e+16
5.37611469e+16
5.43396815e+16
5.49388126e+16
5.55581619e+16
5.61971024e+16
5.68547321e+16
5.75298456e+16
5.82209023e+16
5.89259899e+16
5.96427844e+16
6.03685042e+16
6.10998587e+16
6.18329906e+16
6.25634126e+16
6.32859394e+16
6.39946178e+16
6.4682659e+16
6.5342383e+16
6.59651894e+16
6.65415775e+16
6.70612545e+16
6.75133913e+16
6.78871324e+16
6.81725135e+16
6.83622144e+16
4.86283766e+15
6.043721e+15
7.25097888e+15
8.48140054e+15
9.72717051e+15
1.09801526e+16
1.22332074e+16
1.34805238e+16
1.47175782e+16
1.59409593e+16
1.71481594e+16
1.83373734e+16
1.95073243e+16
2.06571183e+16
2.17861301e+16
2.28939147e+16
2.39801409e+16
2.50445444e+16
2.60868951e+16
2.71069752e+16
2.81045673e+16
2.90794481e+16
3.00313872e+16
3.09601493e+16
3.18654982e+16
3.27472026e+16
3.36050428e+16
3.44388174e+16
3.52483498e+16
3.60334953e+16
3.6794147e+16
3.75302415e+16
3.82417645e+16
3.8928755e+16
3.95913096e+16
4.02295863e+16
4.08438074e+16
4.14342623e+16
4.20013095e+16
4.25453784e+16
4.30669709e+16
4.3566662e+16
4.40451008e+16
4.45030106e+16
4.49411891e+16
4.53605074e+16
4.57619101e+16
4.61464135e+16
4.65151041e+16
4.68691371e+16
4.72097333e+16
4.75381764e+16
4.78558092e+16
4.81640293e+16
4.84622568e+16
4.87585768e+16
4.90543179e+16
4.93508386e+16
4.96495233e+16
4.9951777e+16
5.02590189e+16
5.05726769e+16
5.08941794e+16
5.12249483e+16
5.15663901e+16
5.19198867e+16
5.22867852e+16
5.26683876e+16
5.30659389e+16
5.34806151e+16
5.39135098e+16
5.43656208e+16
5.48378348e+16
5.5330912e+16
5.58454694e+16
5.63819631e+16
5.69406692e+16
5.75216633e+16
5.81247987e+16
5.87496816e+16
5.93956451e+16
6.00617192e+16
6.07465975e+16
6.14485994e+16
6.21656268e+16
6.2895115e+16
6.36339749e+16
6.43785283e+16
6.51244322e+16
6.58665951e+16
6.65990835e+16
6.73150237e+16
6.8006503e+16
6.8664485e+16
6.92787585e+16
6.98379607e+16
7.03297386e+16
7.07411761e+16
7.10596906e+16
7.12749478e+16
5.1583819e+15
6.44375834e+15
7.76000198e+15
9.09981547e+15
1.04525573e+16
1.1808536e+16
1.31599643e+16
1.45009644e+16
1.58272878e+16
1.71359757e+16
1.84250408e+16
1.96931998e+16
2.09396572e+16
2.21639393e+16
2.33657699e+16
2.45449804e+16
2.57014469e+16
2.68350489e+16
2.7945644e+16
2.90330544e+16
3.00970624e+16
3.11374112e+16
3.21538111e+16
3.31459469e+16
3.41134877e+16
3.50560971e+16
3.59734437e+16
3.68652106e+16
3.77311057e+16
3.85708695e+16
3.9384284e+16
4.01711789e+16
4.09314389e+16
4.16650081e+16
4.23718958e+16
4.30521796e+16
4.37060095e+16
4.43336106e+16
4.49352848e+16
4.55114135e+16
4.60624583e+16
4.65889622e+16
4.70915501e+16
4.75709294e+16
4.80278891e+16
4.84633001e+16
4.8878114e+16
4.92733621e+16
4.96501534e+16
5.00096731e+16
5.03531798e+16
5.06820025e+16
5.09975368e+16
5.13012409e+16
5.1591933e+16
5.18785581e+16
5.21625371e+16
5.24453278e+16
5.27284206e+16
5.30133329e+16
5.33016036e+16
5.35947867e+16
5.38944439e+16
5.42021372e+16
5.45194199e+16
5.48478277e+16
5.51888684e+16
5.55440113e+16
5.59146754e+16
5.63022171e+16
5.67079167e+16
5.71329649e+16
5.75784474e+16
5.8045329e+16
5.85344371e+16
5.90464433e+16
5.95818447e+16
6.01409428e+16
6.07238214e+16
6.13303221e+16
6.19600177e+16
6.26121817e+16
6.32857547e+16
6.3979306e+16
6.46909882e+16
6.54184858e+16
6.61589542e+16
6.6908948e+16
6.76643367e+16
6.84202067e+16
6.91707476e+16
6.99091238e+16
7.06273338e+16
7.13160671e+16
7.19645747e+16
7.25605899e+16
7.30903675e+16
7.35389779e+16
7.38911093e+16
7.41330503e+16
5.45683485e+15
6.85026225e+15
8.27873745e+15
9.73011273e+15
1.11907962e+16
1.26496907e+16
1.40986071e+16
1.55318601e+16
1.69457112e+16
1.83378491e+16
1.97069616e+16
2.10524012e+16
2.23739348e+16
2.36715608e+16
2.49453812e+16
2.6195515e+16
2.74220433e+16
2.86249774e+16
2.98042437e+16
3.09596809e+16
3.20910448e+16
3.31980183e+16
3.42802249e+16
3.53372433e+16
3.63686228e+16
3.73738984e+16
3.83526054e+16
3.93042924e+16
4.02285336e+16
4.11249397e+16
4.19931676e+16
4.28329283e+16
4.36439949e+16
4.4426208e+16
4.51794812e+16
4.59038056e+16
4.65992529e+16
4.72659787e+16
4.79042244e+16
4.8514319e+16
4.90966806e+16
4.96518167e+16
5.01803251e+16
5.06828938e+16
5.11603006e+16
5.16134128e+16
5.2043186e+16
5.24506628e+16
5.28369715e+16
5.32033234e+16
5.35510109e+16
5.38814039e+16
5.41959467e+16
5.4496153e+16
5.47833379e+16
5.50609664e+16
5.53337464e+16
5.56032331e+16
5.58710207e+16
5.61387375e+16
5.64080394e+16
5.66806039e+16
5.69581228e+16
5.7242294e+16
5.75348134e+16
5.78373651e+16
5.81516117e+16
5.84791833e+16
5.88216655e+16
5.91805876e+16
5.9557409e+16
5.99535049e+16
6.03701519e+16
6.08085113e+16
6.1269613e+16
6.17543371e+16
6.2263395e+16
6.27973085e+16
6.33563879e+16
6.39407079e+16
6.45500805e+16
6.51840254e+16
6.58417365e+16
6.65220426e+16
6.7223363e+16
6.79436537e+16
6.86803448e+16
6.94302649e+16
7.01895494e+16
7.09535317e+16
7.1716612e+16
7.24721012e+16
7.32120416e+16
7.39270041e+16
7.46058765e+16
7.52356712e+16
7.58014155e+16
7.62862676e+16
7.66721467e+16
7.69416711e+16
5.75803727e+15
7.26259601e+15
8.8058006e+15
1.03700323e+16
1.19387561e+16
1.34997055e+16
1.50445844e+16
1.65681799e+16
1.8067499e+16
1.95410634e+16
2.09883715e+16
2.24095057e+16
2.3804853e+16
2.51749147e+16
2.652018e+16
2.78410493e+16
2.91377909e+16
3.04105228e+16
3.16592112e+16
3.28836793e+16
3.40836242e+16
3.52586367e+16
3.64082233e+16
3.75318285e+16
3.8628856e+16
3.9698689e+16
4.07407088e+16
4.17543113e+16
4.27389214e+16
4.36940065e+16
4.46190868e+16
4.55137454e+16
4.63776355e+16
4.72104878e+16
4.80121152e+16
4.87824175e+16
4.95213848e+16
5.02291005e+16
5.09057428e+16
5.15515867e+16
5.21670047e+16
5.27524674e+16
5.33085437e+16
5.38359007e+16
5.43353032e+16
5.48076127e+16
5.52537868e+16
5.56748772e+16
5.60720283e+16
5.64464749e+16
5.67995396e+16
5.713263e+16
5.74472345e+16
5.77449186e+16
5.80273197e+16
5.82968499e+16
5.85592679e+16
5.88162126e+16
5.90693681e+16
5.93204586e+16
5.95712431e+16
5.98235093e+16
6.0079066e+16
6.03397362e+16
6.06073476e+16
6.0883724e+16
6.11706745e+16
6.14699828e+16
6.17833954e+16
6.21126088e+16
6.24592561e+16
6.28248926e+16
6.3210981e+16
6.36188752e+16
6.40498033e+16
6.45048496e+16
6.49849361e+16
6.54908016e+16
6.60229801e+16
6.65817767e+16
6.71672423e+16
6.77791432e+16
6.84169293e+16
6.90796953e+16
6.97661364e+16
7.04744951e+16
7.1202498e+16
7.19472774e+16
7.2705276e+16
7.34721291e+16
7.42425196e+16
7.50099989e+16
7.57667705e+16
7.65034315e+16
7.72086777e+16
7.786899e+16
7.84683566e+16
7.89881686e+16
7.94076012e+16
7.97053829e+16
6.0618312e+15
7.68012233e+15
9.3398348e+15
1.10174128e+16
1.26935071e+16
1.43549929e+16
1.5993799e+16
1.76054758e+16
1.91880066e+16
2.07409154e+16
2.22646269e+16
2.37600238e+16
2.52281497e+16
2.66700175e+16
2.80864945e+16
2.94782391e+16
3.08456758e+16
3.21889932e+16
3.35081585e+16
3.48029414e+16
3.60729433e+16
3.7317628e+16
3.85363532e+16
3.97284002e+16
4.08930016e+16
4.20293667e+16
4.31367037e+16
4.42142395e+16
4.52612368e+16
4.62770082e+16
4.72609289e+16
4.82124466e+16
4.91310901e+16
5.00164755e+16
5.08683123e+16
5.16864073e+16
5.24706677e+16
5.32211038e+16
5.39378303e+16
5.4621068e+16
5.52711436e+16
5.58884906e+16
5.6473649e+16
5.70272645e+16
5.7550088e+16
5.80429746e+16
5.85068823e+16
5.89428702e+16
5.93520969e+16
5.97358182e+16
6.00953842e+16
6.04322367e+16
6.0747905e+16
6.10440021e+16
6.13222198e+16
6.15844148e+16
6.18371313e+16
6.20820921e+16
6.2321071e+16
6.25558885e+16
6.27884057e+16
6.30205181e+16
6.32541489e+16
6.34912407e+16
6.37337475e+16
6.39836253e+16
6.42428216e+16
6.45132654e+16
6.47968546e+16
6.50954438e+16
6.54108308e+16
6.57447426e+16
6.60988196e+16
6.64746005e+16
6.68735047e+16
6.72968146e+16
6.7745657e+16
6.82209829e+16
6.87235457e+16
6.92538784e+16
6.98122679e+16
7.0398727e+16
7.10129622e+16
7.1654337e+16
7.23218286e+16
7.3013976e+16
7.37288169e+16
7.44638092e+16
7.5215734e+16
7.59805718e+16
7.67533468e+16
7.75279293e+16
7.82967871e+16
7.90506751e+16
7.97782589e+16
8.04656775e+16
8.10960823e+16
8.16492771e+16
8.21017758e+16
8.24282698e+16
6.36806073e+15
8.10221455e+15
9.87953673e+15
1.16702257e+16
1.34523574e+16
1.52123213e+16
1.69426289e+16
1.86398882e+16
2.03032786e+16
2.19334771e+16
2.35319278e+16
2.51003617e+16
2.66404923e+16
2.81538342e+16
2.96416049e+16
3.11046839e+16
3.25436083e+16
3.39585917e+16
3.53495572e+16
3.67161777e+16
3.80579182e+16
3.93740791e+16
4.06638367e+16
4.19262808e+16
4.31604487e+16
4.43653551e+16
4.55400184e+16
4.66834829e+16
4.7794838e+16
4.88732339e+16
4.99178943e+16
5.09281277e+16
5.19033353e+16
5.28430179e+16
5.37467809e+16
5.46143384e+16
5.54455156e+16
5.62402509e+16
5.69985971e+16
5.77207219e+16
5.84069079e+16
5.90575528e+16
5.96731682e+16
6.02543792e+16
6.08019233e+16
6.13166488e+16
6.17995135e+16
6.22515831e+16
6.26740287e+16
6.30681249e+16
6.34352472e+16
6.37768684e+16
6.40945555e+16
6.43899654e+16
6.46648398e+16
6.492046e+16
6.51641531e+16
6.53977201e+16
6.56230201e+16
6.58419645e+16
6.60565121e+16
6.62686622e+16
6.64804478e+16
6.6693928e+16
6.6911179e+16
6.71342849e+16
6.7365328e+16
6.76063771e+16
6.78594767e+16
6.81266335e+16
6.84098039e+16
6.87108794e+16
6.90316714e+16
6.9373896e+16
6.97391565e+16
7.01289264e+16
7.05445308e+16
7.09871261e+16
7.14576799e+16
7.19569478e+16
7.24854493e+16
7.30434403e+16
7.36308827e+16
7.42474094e+16
7.48922821e+16
7.55643419e+16
7.62619476e+16
7.69828984e+16
7.77243364e+16
7.84826204e+16
7.9253163e+16
8.00302186e+16
8.08066072e+16
8.15733586e+16
8.23192587e+16
8.30302883e+16
8.36889713e+16
8.4273729e+16
8.47585456e+16
8.51139985e+16
6.67657267e+15
8.52826467e+15
1.04236724e+16
1.23265946e+16
1.42128691e+16
1.60688211e+16
1.78879203e+16
1.96681222e+16
2.14100066e+16
2.31155332e+16
2.47872354e+16
2.64277174e+16
2.80393556e+16
2.96241368e+16
3.11835865e+16
3.27187545e+16
3.42302376e+16
3.57182213e+16
3.71825342e+16
3.8622705e+16
4.00380207e+16
4.14275809e+16
4.27903483e+16
4.41251943e+16
4.54309383e+16
4.67063825e+16
4.79503409e+16
4.91616648e+16
5.03392622e+16
5.14821153e+16
5.25892937e+16
5.36599648e+16
5.46934027e+16
5.56889934e+16
5.66462407e+16
5.7564768e+16
5.84443215e+16
5.92847708e+16
6.00861097e+16
6.08484558e+16
6.15720504e+16
6.22572574e+16
6.29045625e+16
6.35145715e+16
6.40880094e+16
6.46257184e+16
6.51286562e+16
6.55978942e+16
6.60346151e+16
6.64401108e+16
6.68157796e+16
6.71631229e+16
6.7483742e+16
6.77793339e+16
6.80516864e+16
6.83014905e+16
6.85368493e+16