/*--------------------------------*- C++ -*----------------------------------*\
| =========                 |                                                 |
| \\      /  F ield         | OpenFOAM Extend Project: Open source CFD        |
|  \\    /   O peration     | Version:  1.6-ext                               |
|   \\  /    A nd           | Web:      www.extend-project.de                 |
|    \\/     M anipulation  |                                                 |
\*---------------------------------------------------------------------------*/
FoamFile
{
    version     2.0;
    format      ascii;
    class       volScalarField;
    location    "4000";
    object      prec6;
}
// * * * * * * * * * * * * * * * * * * * * * * * * * * * * * * * * * * * * * //

dimensions      [0 -3 0 0 0 0 0];

internalField   nonuniform List<scalar> 
40000
(
1.24959046e+14
1.48242934e+14
1.71673003e+14
1.9527022e+14
2.19045646e+14
2.43029165e+14
2.67115028e+14
2.91340882e+14
3.157055e+14
3.40208263e+14
3.64848827e+14
3.89626915e+14
4.14542198e+14
4.3959422e+14
4.64782352e+14
4.90105775e+14
5.15563453e+14
5.41154129e+14
5.66876319e+14
5.92728306e+14
6.18708137e+14
6.44813624e+14
6.7104234e+14
6.97391616e+14
7.23858541e+14
7.50439956e+14
7.77132454e+14
8.03932372e+14
8.30835792e+14
8.57838531e+14
8.84936138e+14
9.1212389e+14
9.39396781e+14
9.66749524e+14
9.94176537e+14
1.02167194e+15
1.04922955e+15
1.07684288e+15
1.10450511e+15
1.13220911e+15
1.15994742e+15
1.18771223e+15
1.21549542e+15
1.24328849e+15
1.2710826e+15
1.29886857e+15
1.32663682e+15
1.35437744e+15
1.38208012e+15
1.40973418e+15
1.43732855e+15
1.46485178e+15
1.49229201e+15
1.5196903e+15
1.54702494e+15
1.57424857e+15
1.60133904e+15
1.62828009e+15
1.65505656e+15
1.68165321e+15
1.70805445e+15
1.7342443e+15
1.7602063e+15
1.78592358e+15
1.81137883e+15
1.83655426e+15
1.86143167e+15
1.88599237e+15
1.91021723e+15
1.93408661e+15
1.95758043e+15
1.98067811e+15
2.00335857e+15
2.0256002e+15
2.04738091e+15
2.06867806e+15
2.08946844e+15
2.10972831e+15
2.12943335e+15
2.14855862e+15
2.16707859e+15
2.1849671e+15
2.20219732e+15
2.21874176e+15
2.23457224e+15
2.24965987e+15
2.26397504e+15
2.27748738e+15
2.29016578e+15
2.30197839e+15
2.31289262e+15
2.32287515e+15
2.33189199e+15
2.33990851e+15
2.34688954e+15
2.35279944e+15
2.35760222e+15
2.36126162e+15
2.36374124e+15
2.36500454e+15
1.4820313e+14
1.75888522e+14
2.03769628e+14
2.32001021e+14
2.60372266e+14
2.88882285e+14
3.17525535e+14
3.46292818e+14
3.75179095e+14
4.04182023e+14
4.33300959e+14
4.62536293e+14
4.91889013e+14
5.21360413e+14
5.50951894e+14
5.80664838e+14
6.10500512e+14
6.40460014e+14
6.70544227e+14
7.00753797e+14
7.31089108e+14
7.6155027e+14
7.92137112e+14
8.2284917e+14
8.53685679e+14
8.84645569e+14
9.15727455e+14
9.46929627e+14
9.78250044e+14
1.00968632e+15
1.04123571e+15
1.07289511e+15
1.10466103e+15
1.13652959e+15
1.16849649e+15
1.20055702e+15
1.23270602e+15
1.26493789e+15
1.29724654e+15
1.32962542e+15
1.36206747e+15
1.39456513e+15
1.4271103e+15
1.45969436e+15
1.49230813e+15
1.52494188e+15
1.55758529e+15
1.59022749e+15
1.622857e+15
1.65546174e+15
1.68802903e+15
1.72054556e+15
1.75299737e+15
1.78543418e+15
1.81790979e+15
1.8503389e+15
1.88267025e+15
1.91486918e+15
1.94690886e+15
1.97876603e+15
2.01041888e+15
2.04184597e+15
2.07302578e+15
2.1039364e+15
2.13455547e+15
2.1648601e+15
2.19482683e+15
2.22443164e+15
2.25364997e+15
2.28245664e+15
2.31082595e+15
2.33873157e+15
2.36614662e+15
2.39304361e+15
2.41939448e+15
2.44517051e+15
2.4703424e+15
2.49488018e+15
2.51875324e+15
2.54193027e+15
2.56437929e+15
2.58606757e+15
2.60696166e+15
2.62702734e+15
2.64622962e+15
2.66453268e+15
2.68189993e+15
2.69829395e+15
2.71367652e+15
2.72800862e+15
2.74125051e+15
2.75336172e+15
2.76430115e+15
2.77402716e+15
2.78249764e+15
2.78967011e+15
2.79550179e+15
2.79994976e+15
2.80297079e+15
2.80452206e+15
1.71580174e+14
2.03690304e+14
2.36254974e+14
2.69020904e+14
3.01990162e+14
3.35124041e+14
3.68395129e+14
4.01784912e+14
4.35281473e+14
4.6887763e+14
5.02569538e+14
5.36355663e+14
5.70236042e+14
6.04211763e+14
6.38284576e+14
6.72456637e+14
7.06730305e+14
7.41108012e+14
7.75592162e+14
8.10185062e+14
8.4488887e+14
8.79705559e+14
9.14636887e+14
9.4968438e+14
9.84849307e+14
1.02013267e+15
1.05553518e+15
1.09105724e+15
1.12669895e+15
1.16246006e+15
1.19833995e+15
1.23433763e+15
1.27045171e+15
1.30668035e+15
1.34302127e+15
1.3794717e+15
1.41602835e+15
1.45268742e+15
1.48944449e+15
1.52629458e+15
1.56323208e+15
1.60025069e+15
1.63734348e+15
1.67450275e+15
1.71172011e+15
1.74898638e+15
1.7862916e+15
1.82362503e+15
1.86097504e+15
1.89832921e+15
1.9356742e+15
1.97299577e+15
2.01027874e+15
2.04754736e+15
2.08493344e+15
2.12234424e+15
2.15971406e+15
2.19699357e+15
2.2341433e+15
2.27112953e+15
2.30792181e+15
2.34449133e+15
2.38081003e+15
2.4168499e+15
2.45258274e+15
2.48797984e+15
2.52301187e+15
2.55764887e+15
2.59186011e+15
2.62561412e+15
2.65887868e+15
2.69162079e+15
2.72380669e+15
2.75540183e+15
2.7863709e+15
2.8166778e+15
2.84628567e+15
2.87515683e+15
2.90325285e+15
2.93053449e+15
2.95696174e+15
2.98249378e+15
3.00708903e+15
3.03070515e+15
3.05329907e+15
3.07482701e+15
3.09524455e+15
3.1145067e+15
3.13256799e+15
3.14938258e+15
3.16490437e+15
3.17908718e+15
3.19188485e+15
3.20325139e+15
3.21314104e+15
3.22150832e+15
3.22830787e+15
3.23349446e+15
3.23702225e+15
3.23884606e+15
1.9515301e+14
2.3189685e+14
2.68994439e+14
3.06375189e+14
3.43990499e+14
3.8179292e+14
4.19745324e+14
4.57820002e+14
4.95997041e+14
5.3426268e+14
5.72607867e+14
6.11027093e+14
6.49517476e+14
6.88078057e+14
7.26709271e+14
7.65412544e+14
8.04189996e+14
8.43044219e+14
8.81978108e+14
9.20994743e+14
9.60097291e+14
9.99288941e+14
1.03857285e+15
1.0779521e+15
1.11742965e+15
1.15700835e+15
1.19669086e+15
1.23647964e+15
1.27637695e+15
1.31638477e+15
1.35650481e+15
1.39673847e+15
1.43708679e+15
1.47755042e+15
1.51812958e+15
1.55882401e+15
1.59963293e+15
1.64055503e+15
1.68158833e+15
1.72273026e+15
1.76397748e+15
1.80532594e+15
1.84677078e+15
1.88830626e+15
1.92992579e+15
1.97162179e+15
2.01338573e+15
2.05520802e+15
2.09707802e+15
2.13898395e+15
2.18091288e+15
2.22285064e+15
2.26478179e+15
2.30669381e+15
2.34879024e+15
2.3909796e+15
2.4331906e+15
2.47536559e+15
2.51745604e+15
2.55941939e+15
2.60121684e+15
2.64281189e+15
2.68416923e+15
2.72525404e+15
2.76603144e+15
2.80646619e+15
2.8465224e+15
2.88616341e+15
2.92535167e+15
2.96404862e+15
3.00221475e+15
3.03980948e+15
3.07679118e+15
3.11311718e+15
3.14874379e+15
3.18362624e+15
3.21771876e+15
3.25097459e+15
3.28334598e+15
3.31478424e+15
3.34523976e+15
3.37466212e+15
3.40300009e+15
3.43020177e+15
3.45621468e+15
3.4809859e+15
3.50446225e+15
3.52659048e+15
3.54731754e+15
3.5665908e+15
3.58435842e+15
3.60056955e+15
3.61517466e+15
3.62812572e+15
3.63937623e+15
3.64888112e+15
3.6565963e+15
3.66247825e+15
3.6664825e+15
3.66856491e+15
2.18958583e+14
2.60354452e+14
3.02080486e+14
3.44122067e+14
3.86424566e+14
4.28937271e+14
4.71616754e+14
5.14427798e+14
5.57342912e+14
6.00341304e+14
6.4340773e+14
6.86531414e+14
7.29705118e+14
7.72924371e+14
8.16186843e+14
8.59491862e+14
9.0284002e+14
9.46232885e+14
9.89672765e+14
1.03316253e+15
1.0767055e+15
1.12030529e+15
1.16396577e+15
1.20769101e+15
1.25148517e+15
1.2953525e+15
1.3392973e+15
1.38332384e+15
1.42743635e+15
1.471639e+15
1.51593579e+15
1.56033056e+15
1.60482694e+15
1.64942827e+15
1.69413756e+15
1.73895744e+15
1.78389005e+15
1.82893707e+15
1.87409956e+15
1.91937793e+15
1.96477188e+15
2.01028032e+15
2.05590126e+15
2.10163181e+15
2.14746806e+15
2.19340499e+15
2.23943646e+15
2.28555508e+15
2.33175216e+15
2.37801764e+15
2.42434001e+15
2.47070623e+15
2.51710161e+15
2.56347276e+15
2.61009022e+15
2.6568664e+15
2.70372878e+15
2.7506156e+15
2.79747268e+15
2.84425106e+15
2.89090525e+15
2.93739195e+15
2.98366907e+15
3.029695e+15
3.07542808e+15
3.1208262e+15
3.16584649e+15
3.21044509e+15
3.25457701e+15
3.29819602e+15
3.34125456e+15
3.38370366e+15
3.42549299e+15
3.46657078e+15
3.50688384e+15
3.54637762e+15
3.58499618e+15
3.6226823e+15
3.6593775e+15
3.69502214e+15
3.72955553e+15
3.76291602e+15
3.79504123e+15
3.82586818e+15
3.85533354e+15
3.88337398e+15
3.90992642e+15
3.93492851e+15
3.95831902e+15
3.98003841e+15
4.00002929e+15
4.01823698e+15
4.03460992e+15
4.0491e+15
4.06166256e+15
4.07225609e+15
4.08084136e+15
4.08738033e+15
4.09183374e+15
4.09416174e+15
2.43026222e+14
2.89103708e+14
3.35539167e+14
3.82299644e+14
4.29338766e+14
4.76607401e+14
5.24059451e+14
5.71654614e+14
6.19359186e+14
6.67145861e+14
7.14993092e+14
7.6288429e+14
8.10807027e+14
8.58752312e+14
9.0671396e+14
9.54688071e+14
1.0026726e+15
1.050667e+15
1.09867198e+15
1.14668923e+15
1.19472131e+15
1.24277146e+15
1.29084353e+15
1.33894186e+15
1.38707123e+15
1.43523679e+15
1.48344399e+15
1.53169853e+15
1.58000633e+15
1.62837346e+15
1.67680606e+15
1.72531033e+15
1.77389244e+15
1.82255846e+15
1.8713143e+15
1.92016563e+15
1.9691178e+15
2.01817578e+15
2.06734403e+15
2.11662644e+15
2.16602622e+15
2.21554583e+15
2.26518683e+15
2.31494984e+15
2.3648344e+15
2.41483888e+15
2.46496037e+15
2.51519457e+15
2.56553571e+15
2.6159764e+15
2.66650757e+15
2.71711829e+15
2.76779567e+15
2.81848547e+15
2.86942965e+15
2.92059909e+15
2.97192187e+15
3.02333443e+15
3.07477921e+15
3.12620285e+15
3.17755478e+15
3.22878617e+15
3.27984903e+15
3.33069558e+15
3.3812777e+15
3.43154654e+15
3.4814522e+15
3.53094345e+15
3.57996757e+15
3.62847021e+15
3.67639523e+15
3.72368469e+15
3.77027877e+15
3.81611578e+15
3.86113213e+15
3.90526238e+15
3.9484393e+15
3.99059395e+15
4.03165576e+15
4.0715527e+15
4.11021148e+15
4.1475577e+15
4.18351621e+15
4.21801137e+15
4.25096754e+15
4.28230947e+15
4.31196295e+15
4.3398554e+15
4.36591665e+15
4.39007974e+15
4.41228172e+15
4.43246452e+15
4.45057558e+15
4.46656834e+15
4.48040228e+15
4.49204232e+15
4.50145748e+15
4.50861895e+15
4.51349634e+15
4.5160574e+15
2.67265292e+14
3.18159224e+14
3.6938686e+14
4.20935841e+14
4.72771411e+14
5.24849529e+14
5.7712457e+14
6.29553642e+14
6.82098593e+14
7.34726691e+14
7.87410587e+14
8.40127923e+14
8.92860776e+14
9.45595083e+14
9.98320079e+14
1.05102781e+15
1.10371271e+15
1.15637122e+15
1.20900152e+15
1.26160326e+15
1.31417738e+15
1.36672595e+15
1.41925203e+15
1.47175955e+15
1.52425327e+15
1.57673861e+15
1.6292217e+15
1.68170919e+15
1.73420826e+15
1.78672656e+15
1.83927209e+15
1.89185317e+15
1.94447836e+15
1.99715635e+15
2.04989594e+15
2.10270588e+15
2.1555948e+15
2.20857112e+15
2.26164294e+15
2.3148179e+15
2.3681031e+15
2.42150495e+15
2.47502905e+15
2.52868009e+15
2.58246166e+15
2.63637616e+15
2.69042466e+15
2.74460674e+15
2.79892035e+15
2.85336166e+15
2.90792493e+15
2.96260231e+15
3.01738367e+15
3.07225641e+15
3.12733999e+15
3.1827149e+15
3.23831122e+15
3.29406535e+15
3.34991825e+15
3.40581397e+15
3.4616985e+15
3.51751886e+15
3.57322234e+15
3.62875591e+15
3.68406571e+15
3.73909669e+15
3.79379221e+15
3.84809386e+15
3.90194119e+15
3.95527158e+15
4.00802009e+15
4.06011937e+15
4.11149962e+15
4.16208857e+15
4.21181145e+15
4.26059107e+15
4.30834788e+15
4.35500006e+15
4.40046373e+15
4.44465313e+15
4.48748087e+15
4.5288583e+15
4.5686959e+15
4.6069038e+15
4.64339237e+15
4.67807295e+15
4.71085869e+15
4.74166553e+15
4.77041327e+15
4.79702678e+15
4.8214372e+15
4.84358313e+15
4.8634117e+15
4.8808792e+15
4.89595116e+15
4.9086016e+15
4.91881102e+15
4.92656346e+15
4.93184124e+15
4.93462302e+15
2.91711828e+14
3.47522274e+14
4.03632152e+14
4.60049168e+14
5.16751476e+14
5.73702255e+14
6.30858684e+14
6.88177421e+14
7.45617617e+14
8.03142403e+14
8.60719465e+14
9.18321099e+14
9.75923972e+14
1.03350876e+15
1.09105973e+15
1.14856433e+15
1.20601282e+15
1.26339792e+15
1.32071454e+15
1.37795952e+15
1.43513144e+15
1.49223044e+15
1.54925809e+15
1.60621724e+15
1.66311196e+15
1.71994741e+15
1.77672977e+15
1.83346618e+15
1.89016464e+15
1.94683396e+15
2.00348364e+15
2.06012384e+15
2.11676526e+15
2.17341905e+15
2.23009671e+15
2.28681001e+15
2.34357086e+15
2.40039117e+15
2.45728275e+15
2.51425717e+15
2.57132561e+15
2.62849875e+15
2.68578656e+15
2.74319818e+15
2.80074173e+15
2.8584242e+15
2.91625119e+15
2.9742268e+15
3.03235342e+15
3.09063154e+15
3.14905954e+15
3.2076335e+15
3.26634698e+15
3.32519071e+15
3.38424861e+15
3.44365974e+15
3.50335768e+15
3.56328062e+15
3.62336992e+15
3.68356889e+15
3.74382184e+15
3.80407324e+15
3.8642671e+15
3.92434638e+15
3.98425254e+15
4.04392516e+15
4.10330161e+15
4.16231677e+15
4.22090284e+15
4.27898912e+15
4.3365019e+15
4.39336434e+15
4.44949639e+15
4.5048148e+15
4.55923308e+15
4.6126616e+15
4.66500765e+15
4.71617561e+15
4.76606714e+15
4.81458152e+15
4.86161594e+15
4.907066e+15
4.95082629e+15
4.99279107e+15
5.03285507e+15
5.07091458e+15
5.10686853e+15
5.14061987e+15
5.17207708e+15
5.2011558e+15
5.22778052e+15
5.25188632e+15
5.27342024e+15
5.29234231e+15
5.30862577e+15
5.32225605e+15
5.3332282e+15
5.34154272e+15
5.34719847e+15
5.35018868e+15
3.16363578e+14
3.77190832e+14
4.38277726e+14
4.99650067e+14
5.61298758e+14
6.23195104e+14
6.85300521e+14
7.47572799e+14
8.09969862e+14
8.72451929e+14
9.34982638e+14
9.97529547e+14
1.06006423e+15
1.12256217e+15
1.18500251e+15
1.2473678e+15
1.30964369e+15
1.37181866e+15
1.43388377e+15
1.49583242e+15
1.55766019e+15
1.61936465e+15
1.68094523e+15
1.74240308e+15
1.803741e+15
1.86496327e+15
1.92607566e+15
1.98708526e+15
2.04800041e+15
2.10883068e+15
2.16958669e+15
2.23028008e+15
2.29092342e+15
2.35153004e+15
2.41211399e+15
2.47268988e+15
2.53327277e+15
2.59387804e+15
2.6545212e+15
2.71521781e+15
2.77598325e+15
2.83683261e+15
2.89778045e+15
2.95884065e+15
3.02002623e+15
3.08134912e+15
3.14281995e+15
3.20444784e+15
3.26624021e+15
3.32820248e+15
3.39033789e+15
3.45264717e+15
3.51512836e+15
3.5777764e+15
3.64063916e+15
3.7039145e+15
3.76754039e+15
3.83145798e+15
3.89561035e+15
3.95994146e+15
4.0243953e+15
4.08891516e+15
4.15344303e+15
4.21791903e+15
4.28228102e+15
4.34646417e+15
4.41040067e+15
4.47401942e+15
4.53724579e+15
4.60000144e+15
4.66220415e+15
4.72376773e+15
4.78460186e+15
4.84461216e+15
4.90370012e+15
4.96176318e+15
5.01869487e+15
5.07438497e+15
5.12871981e+15
5.18158258e+15
5.23285387e+15
5.28241217e+15
5.33013469e+15
5.37589824e+15
5.4195803e+15
5.46106036e+15
5.50022146e+15
5.53695191e+15
5.57114735e+15
5.60271288e+15
5.63156534e+15
5.65763558e+15
5.68087048e+15
5.7012343e+15
5.71870919e+15
5.73329404e+15
5.74500125e+15
5.75385134e+15
5.75986368e+15
5.76304994e+15
3.41217678e+14
4.07160662e+14
4.73321824e+14
5.39742344e+14
6.06424721e+14
6.73348329e+14
7.40479442e+14
8.07777937e+14
8.75201568e+14
9.42708631e+14
1.01025954e+15
1.07781774e+15
1.14535012e+15
1.21282716e+15
1.28022292e+15
1.34751491e+15
1.4146839e+15
1.48171377e+15
1.54859128e+15
1.61530593e+15
1.68184977e+15
1.74821726e+15
1.81440515e+15
1.88041235e+15
1.94623983e+15
2.01189051e+15
2.07736921e+15
2.14268251e+15
2.20783867e+15
2.27284757e+15
2.33772059e+15
2.4024705e+15
2.46711139e+15
2.53165852e+15
2.59612824e+15
2.66053779e+15
2.72490525e+15
2.7892493e+15
2.85358913e+15
2.91794423e+15
2.98233422e+15
3.04677866e+15
3.11129683e+15
3.17590755e+15
3.24062893e+15
3.30547815e+15
3.37047122e+15
3.43562271e+15
3.50094548e+15
3.56645045e+15
3.63214626e+15
3.69803898e+15
3.76413178e+15
3.83042459e+15
3.89692903e+15
3.96390224e+15
4.03128732e+15
4.09902935e+15
4.16707424e+15
4.23536781e+15
4.30385496e+15
4.37247906e+15
4.44118126e+15
4.50990007e+15
4.57857082e+15
4.64712533e+15
4.71549152e+15
4.78359314e+15
4.85134948e+15
4.91867515e+15
4.98547992e+15
5.05166855e+15
5.11714072e+15
5.18179094e+15
5.2455086e+15
5.308178e+15
5.36967849e+15
5.42988471e+15
5.48866689e+15
5.54589132e+15
5.60142086e+15
5.65511572e+15
5.70683438e+15
5.75643467e+15
5.80377523e+15
5.84871706e+15
5.89112553e+15
5.9308726e+15
5.96783935e+15
6.0019188e+15
6.0330188e+15
6.06106503e+15
6.08600363e+15
6.10780321e+15
6.1264556e+15
6.14197482e+15
6.1543932e+15
6.16375465e+15
6.17010317e+15
6.17347302e+15
3.66270827e+14
4.37425984e+14
5.08759355e+14
5.80324436e+14
6.52133561e+14
7.24173409e+14
7.96415053e+14
8.68820835e+14
9.41348937e+14
1.01395639e+15
1.08660103e+15
1.1592427e+15
1.23184398e+15
1.30437062e+15
1.37679167e+15
1.44907957e+15
1.5212101e+15
1.59316229e+15
1.66491831e+15
1.73646339e+15
1.80778564e+15
1.878876e+15
1.94972807e+15
2.02033806e+15
2.09070468e+15
2.16082904e+15
2.23071455e+15
2.30036685e+15
2.36979371e+15
2.43900496e+15
2.50801232e+15
2.57682939e+15
2.64547145e+15
2.7139554e+15
2.78229959e+15
2.85052373e+15
2.91864865e+15
2.98669623e+15
3.05468916e+15
3.12265081e+15
3.19060497e+15
3.25857569e+15
3.326587e+15
3.39466275e+15
3.4628263e+15
3.53110027e+15
3.59950627e+15
3.66806462e+15
3.73679404e+15
3.8057113e+15
3.87483096e+15
3.94416492e+15
4.01372212e+15
4.08350809e+15
4.15349805e+15
4.22400916e+15
4.29499032e+15
4.36639135e+15
4.43816197e+15
4.5102509e+15
4.58260511e+15
4.65516914e+15
4.72788453e+15
4.80068924e+15
4.87351722e+15
4.94629796e+15
5.01895615e+15
5.0914113e+15
5.16357744e+15
5.23536289e+15
5.30667006e+15
5.37739519e+15
5.44742833e+15
5.51665318e+15
5.58494714e+15
5.65218133e+15
5.71822077e+15
5.78292461e+15
5.84614647e+15
5.90773501e+15
5.96753455e+15
6.02538595e+15
6.08112774e+15
6.13459743e+15
6.18563324e+15
6.23407606e+15
6.27977184e+15
6.32257435e+15
6.36234834e+15
6.39897297e+15
6.43234555e+15
6.46238526e+15
6.48903662e+15
6.51227223e+15
6.532094e+15
6.54853232e+15
6.56164167e+15
6.57149265e+15
6.57815792e+15
6.58169885e+15
3.9151939e+14
4.67979916e+14
5.4458272e+14
6.21390486e+14
6.98423288e+14
7.75673872e+14
8.53117524e+14
9.30718923e+14
1.00843684e+15
1.08622738e+15
1.16404615e+15
1.24184975e+15
1.31959678e+15
1.39724843e+15
1.4747689e+15
1.55212557e+15
1.62928917e+15
1.70623375e+15
1.7829367e+15
1.8593787e+15
1.93554365e+15
2.01141863e+15
2.08699375e+15
2.16226218e+15
2.23721997e+15
2.31186603e+15
2.38620201e+15
2.46023226e+15
2.53396368e+15
2.60740567e+15
2.68057e+15
2.75347073e+15
2.82612406e+15
2.89854822e+15
2.97076332e+15
3.04279124e+15
3.1146554e+15
3.18638064e+15
3.25799302e+15
3.32951963e+15
3.40098835e+15
3.47242763e+15
3.54386626e+15
3.61533312e+15
3.68685687e+15
3.75846569e+15
3.83018698e+15
3.90204698e+15
3.97407053e+15
4.04628061e+15
4.11869803e+15
4.191341e+15
4.26422469e+15
4.33736082e+15
4.4106879e+15
4.48458408e+15
4.55900463e+15
4.63390486e+15
4.70923914e+15
4.78496005e+15
4.86101763e+15
4.93735868e+15
5.01392615e+15
5.09065858e+15
5.16748961e+15
5.24434747e+15
5.32115463e+15
5.39782732e+15
5.47427527e+15
5.55040134e+15
5.6261013e+15
5.70126359e+15
5.77576915e+15
5.84949133e+15
5.92229585e+15
5.99404083e+15
6.06457697e+15
6.13374778e+15
6.20138999e+15
6.26733413e+15
6.33140532e+15
6.39342422e+15
6.45320834e+15
6.51057367e+15
6.5653366e+15
6.6173163e+15
6.66633762e+15
6.71223431e+15
6.75485288e+15
6.79405679e+15
6.829731e+15
6.86178663e+15
6.89016534e+15
6.91484294e+15
6.93583141e+15
6.95317828e+15
6.96696212e+15
6.97728318e+15
6.9842469e+15
6.98794637e+15
4.16959479e+14
4.98814786e+14
5.80782423e+14
6.62931215e+14
7.45286733e+14
8.2784625e+14
9.10588293e+14
9.93479351e+14
1.07647858e+15
1.15954111e+15
1.24262047e+15
1.32567017e+15
1.40864499e+15
1.49150171e+15
1.57419976e+15
1.65670152e+15
1.73897265e+15
1.82098215e+15
1.9027025e+15
1.9841097e+15
2.06518323e+15
2.14590607e+15
2.22626461e+15
2.30624867e+15
2.38585139e+15
2.46506918e+15
2.54390163e+15
2.62235147e+15
2.70042445e+15
2.77812923e+15
2.85547734e+15
2.93248299e+15
3.00916302e+15
3.08553671e+15
3.16162568e+15
3.2374537e+15
3.31304657e+15
3.38843188e+15
3.46363885e+15
3.53869813e+15
3.61364152e+15
3.68850181e+15
3.76331243e+15
3.83810725e+15
3.91292023e+15
3.98778516e+15
4.06273525e+15
4.13780287e+15
4.2130191e+15
4.28841338e+15
4.36401306e+15
4.43984299e+15
4.51592498e+15
4.59227739e+15
4.66880161e+15
4.7459379e+15
4.82364838e+15
4.9018945e+15
4.98063605e+15
5.05983032e+15
5.13943135e+15
5.21938914e+15
5.29964909e+15
5.38015136e+15
5.46083029e+15
5.54161393e+15
5.62242352e+15
5.70317304e+15
5.78376885e+15
5.86410929e+15
5.94408433e+15
6.02357537e+15
6.10245495e+15
6.18058664e+15
6.25782494e+15
6.33401534e+15
6.40899439e+15
6.48259005e+15
6.55462202e+15
6.62490246e+15
6.69323677e+15
6.75942476e+15
6.8232621e+15
6.88454215e+15
6.9430582e+15
6.99860629e+15
7.05098847e+15
7.10001672e+15
7.1455174e+15
7.18733629e+15
7.22534409e+15
7.25944201e+15
7.28956732e+15
7.31569795e+15
7.33785542e+15
7.35610485e+15
7.37055033e+15
7.38132452e+15
7.38856957e+15
7.39241522e+15
4.42586986e+14
5.29922342e+14
6.17347525e+14
7.04934619e+14
7.92712427e+14
8.80681033e+14
9.68820971e+14
1.0570997e+15
1.14547622e+15
1.23390444e+15
1.32233561e+15
1.41072017e+15
1.49900905e+15
1.58715471e+15
1.67511183e+15
1.76283784e+15
1.8502933e+15
1.93744217e+15
2.02425196e+15
2.11069389e+15
2.1967429e+15
2.28237774e+15
2.36758093e+15
2.45233875e+15
2.53664121e+15
2.62048202e+15
2.70385849e+15
2.78677149e+15
2.86922535e+15
2.95122778e+15
3.03278977e+15
3.11392545e+15
3.19465202e+15
3.27498957e+15
3.35496096e+15
3.43459164e+15
3.51390949e+15
3.59294466e+15
3.67172931e+15
3.75029743e+15
3.82868462e+15
3.90692778e+15
3.9850649e+15
4.06313472e+15
4.14117645e+15
4.21922941e+15
4.29733272e+15
4.37552484e+15
4.45384324e+15
4.53232394e+15
4.61100106e+15
4.6899063e+15
4.76906847e+15
4.84851291e+15
4.9281034e+15
5.00834338e+15
5.08920229e+15
5.17064831e+15
5.25264734e+15
5.33516214e+15
5.41815154e+15
5.5015697e+15
5.58536539e+15
5.66948133e+15
5.7538536e+15
5.83841105e+15
5.92307473e+15
6.00775737e+15
6.09236294e+15
6.1767862e+15
6.26091227e+15
6.34461633e+15
6.4277633e+15
6.51020767e+15
6.59179335e+15
6.67235365e+15
6.75171139e+15
6.82967915e+15
6.90605972e+15
6.98064675e+15
7.05322569e+15
7.12357503e+15
7.19146788e+15
7.25667411e+15
7.31896283e+15
7.37810559e+15
7.43388014e+15
7.48607493e+15
7.53449431e+15
7.57896439e+15
7.61933953e+15
7.65550908e+15
7.68740409e+15
7.71500316e+15
7.73833652e+15
7.7574868e+15
7.77258467e+15
7.78379759e+15
7.79130824e+15
7.79528791e+15
4.68397624e+14
5.61293912e+14
6.54265994e+14
7.47386545e+14
8.40685375e+14
9.34163585e+14
1.02780231e+15
1.12156893e+15
1.21542152e+15
1.30931221e+15
1.40318965e+15
1.49700096e+15
1.59069314e+15
1.68421424e+15
1.7775142e+15
1.87054548e+15
1.96326357e+15
2.05562736e+15
2.14759941e+15
2.23914612e+15
2.33023787e+15
2.42084909e+15
2.51095834e+15
2.60054828e+15
2.68960568e+15
2.77812139e+15
2.86609028e+15
2.9535112e+15
3.04038688e+15
3.12672386e+15
3.21253239e+15
3.29782632e+15
3.38262295e+15
3.46694295e+15
3.55081017e+15
3.63425152e+15
3.71729673e+15
3.79997823e+15
3.88233091e+15
3.96439191e+15
4.04620036e+15
4.12779714e+15
4.20922458e+15
4.29052616e+15
4.37174623e+15
4.45292956e+15
4.53412106e+15
4.61536533e+15
4.69670623e+15
4.77818645e+15
4.85984695e+15
4.94172652e+15
5.02386114e+15
5.10628342e+15
5.18881894e+15
5.27203539e+15
5.35590994e+15
5.44041798e+15
5.52553213e+15
5.61122132e+15
5.69744995e+15
5.78417711e+15
5.87135583e+15
5.95893233e+15
6.04684536e+15
6.13502554e+15
6.22339472e+15
6.31186539e+15
6.40034013e+15
6.48871107e+15
6.57685943e+15
6.66465508e+15
6.7519562e+15
6.83860898e+15
6.92444744e+15
7.00929333e+15
7.09295624e+15
7.17523377e+15
7.25591202e+15
7.33476623e+15
7.41156179e+15
7.48605558e+15
7.55799769e+15
7.62713378e+15
7.69320784e+15
7.75596577e+15
7.81515963e+15
7.87055272e+15
7.92192552e+15
7.96908251e+15
8.0118596e+15
8.05013217e+15
8.08382303e+15
8.11290972e+15
8.13742993e+15
8.15748336e+15
8.17322789e+15
8.18486774e+15
8.19262973e+15
8.19673164e+15
4.94386947e+14
5.92920507e+14
6.91524971e+14
7.90271141e+14
8.89187706e+14
9.88274976e+14
1.08751319e+15
1.18686843e+15
1.28629691e+15
1.38574824e+15
1.48516798e+15
1.58449952e+15
1.68368572e+15
1.78267006e+15
1.88139764e+15
1.97981593e+15
2.07787537e+15
2.17552979e+15
2.27273681e+15
2.36945804e+15
2.46565931e+15
2.56131077e+15
2.65638699e+15
2.75086697e+15
2.8447342e+15
2.9379766e+15
3.03058653e+15
3.12256069e+15
3.21390009e+15
3.30460996e+15
3.39469963e+15
3.48418246e+15
3.57307571e+15
3.66140039e+15
3.74918112e+15
3.83644601e+15
3.92322642e+15
4.00955684e+15
4.09547463e+15
4.18101982e+15
4.26623486e+15
4.35116437e+15
4.43585483e+15
4.52035429e+15
4.604712e+15
4.68897809e+15
4.77320315e+15
4.85743782e+15
4.94173232e+15
5.02613597e+15
5.11069669e+15
5.19546038e+15
5.28047038e+15
5.3657668e+15
5.45136613e+15
5.53741275e+15
5.62415252e+15
5.71156873e+15
5.79964138e+15
5.88834622e+15
5.97765392e+15
6.06752917e+15
6.15792993e+15
6.24880663e+15
6.34010141e+15
6.43174741e+15
6.52366805e+15
6.61577636e+15
6.70797433e+15
6.8001523e+15
6.8921884e+15
6.98394802e+15
7.07528338e+15
7.16603312e+15
7.25602209e+15
7.34506115e+15
7.4329472e+15
7.51946335e+15
7.60437934e+15
7.68745223e+15
7.76842738e+15
7.84703995e+15
7.92301671e+15
7.99607855e+15
8.06594359e+15
8.13233108e+15
8.19496613e+15
8.25358538e+15
8.30794374e+15
8.35782206e+15
8.40303572e+15
8.4434439e+15
8.47895903e+15
8.50955562e+15
8.53527726e+15
8.55623984e+15
8.57262866e+15
8.5846863e+15
8.59268697e+15
8.59689987e+15
5.20550364e+14
6.24792917e+14
7.2911098e+14
8.33571237e+14
9.38199244e+14
1.04299274e+15
1.14792953e+15
1.25297308e+15
1.35807668e+15
1.4631866e+15
1.56824458e+15
1.67318986e+15
1.77796076e+15
1.88249598e+15
1.98673566e+15
2.0906222e+15
2.19410098e+15
2.29712082e+15
2.39963442e+15
2.50159871e+15
2.60297502e+15
2.70372927e+15
2.80383209e+15
2.9032589e+15
3.0019899e+15
3.1000101e+15
3.19730929e+15
3.29388199e+15
3.38972742e+15
3.48484937e+15
3.57925616e+15
3.67296051e+15
3.76597944e+15
3.85833411e+15
3.95004974e+15
4.04115539e+15
4.13168383e+15
4.22167134e+15
4.31115751e+15
4.40018502e+15
4.48879938e+15
4.5770487e+15
4.66498336e+15
4.75265574e+15
4.84011982e+15
4.92743087e+15
5.01464499e+15
5.10181873e+15
5.18900855e+15
5.27627038e+15
5.36365901e+15
5.45122753e+15
5.53902669e+15
5.6271042e+15
5.71550399e+15
5.80429701e+15
5.89381109e+15
5.98403709e+15
6.07496234e+15
6.16656966e+15
6.25883642e+15
6.35173362e+15
6.44522501e+15
6.53926618e+15
6.63380379e+15
6.72877462e+15
6.82410487e+15
6.91970932e+15
7.01549057e+15
7.11133838e+15
7.20712892e+15
7.30272423e+15
7.3979716e+15
7.49270318e+15
7.58673553e+15
7.67986947e+15
7.77188996e+15
7.86256626e+15
7.95165227e+15
8.03888723e+15
8.12399674e+15
8.20669425e+15
8.28668306e+15
8.36365897e+15
8.43731364e+15
8.50733881e+15
8.57343155e+15
8.6353005e+15
8.69267335e+15
8.74530545e+15
8.79298956e+15
8.83556644e+15
8.87293585e+15
8.90506711e+15
8.93200785e+15
8.95388898e+15
8.97092295e+15
8.98339189e+15
8.99162029e+15
8.99593352e+15
5.46883151e+14
6.56901766e+14
7.67010091e+14
8.77268654e+14
9.87697992e+14
1.09829155e+15
1.20902314e+15
1.3198523e+15
1.43072821e+15
1.54159286e+15
1.65238344e+15
1.76303444e+15
1.87347922e+15
1.98365141e+15
2.09348601e+15
2.20292029e+15
2.31189452e+15
2.42035256e+15
2.52824231e+15
2.63551607e+15
2.74213081e+15
2.84804834e+15
2.95323549e+15
3.05766413e+15
3.1613113e+15
3.26415911e+15
3.36619486e+15
3.46741087e+15
3.56780452e+15
3.66737814e+15
3.76613893e+15
3.86409885e+15
3.96127455e+15
4.05768719e+15
4.15336235e+15
4.24832986e+15
4.34262367e+15
4.43628159e+15
4.52934519e+15
4.62185953e+15
4.71387291e+15
4.80543665e+15
4.89660478e+15
4.98743372e+15
5.07798196e+15
5.16830964e+15
5.25847819e+15
5.34854986e+15
5.43858722e+15
5.52865264e+15
5.61880773e+15
5.7091127e+15
5.79962573e+15
5.89040216e+15
5.98149382e+15
6.07293796e+15
6.1651236e+15
6.25804993e+15
6.35171233e+15
6.44610136e+15
6.54120176e+15
6.63699146e+15
6.7334406e+15
6.83051065e+15
6.92815337e+15
7.02631e+15
7.12491027e+15
7.22387153e+15
7.32309793e+15
7.42247955e+15
7.52189162e+15
7.62119377e+15
7.72022942e+15
7.81882513e+15
7.9167902e+15
8.01391627e+15
8.10997723e+15
8.2047292e+15
8.29791091e+15
8.3892443e+15
8.47843558e+15
8.56517672e+15
8.64914758e+15
8.73001867e+15
8.80745478e+15
8.8811195e+15
8.95068092e+15
9.01581846e+15
9.07623111e+15
9.13164693e+15
9.18183404e+15
9.22661254e+15
9.26586719e+15
9.2995598e+15
9.32773999e+15
9.35055211e+15
9.36823514e+15
9.38111147e+15
9.38955844e+15
9.39396209e+15
5.73380457e+14
6.89237558e+14
8.0520805e+14
9.21344455e+14
1.03766054e+15
1.15414379e+15
1.27076253e+15
1.38747097e+15
1.50421304e+15
1.62092542e+15
1.73753996e+15
1.85398574e+15
1.97019069e+15
2.08608306e+15
2.20159249e+15
2.31665102e+15
2.43119383e+15
2.54515985e+15
2.65849228e+15
2.77113896e+15
2.88305262e+15
2.99419116e+15
3.10451771e+15
3.21400082e+15
3.32261442e+15
3.4303379e+15
3.53715608e+15
3.64305917e+15
3.74804271e+15
3.85210755e+15
3.95525971e+15
4.05751032e+15
4.15887552e+15
4.25937632e+15
4.35903851e+15
4.45789247e+15
4.55597307e+15
4.65331947e+15
4.7499749e+15
4.84598654e+15
4.9414052e+15
5.03628512e+15
5.13068367e+15
5.22466105e+15
5.31827992e+15
5.41160508e+15
5.504703e+15
5.5976414e+15
5.69048873e+15
5.78331366e+15
5.87618446e+15
5.96916835e+15
6.06233085e+15
6.15573498e+15
6.24944046e+15
6.3434498e+15
6.43821399e+15
6.53374084e+15
6.63003414e+15
6.72709263e+15
6.82490892e+15
6.92346846e+15
7.02274846e+15
7.1227169e+15
7.22333148e+15
7.3245386e+15
7.42627237e+15
7.52845359e+15
7.63098882e+15
7.73376937e+15
7.83667046e+15
7.9395503e+15
8.04224935e+15
8.1445896e+15
8.24637398e+15
8.34738592e+15
8.44738906e+15
8.54612725e+15
8.64332474e+15
8.73868683e+15
8.83190082e+15
8.92263756e+15
9.01055364e+15
9.09529427e+15
9.17649711e+15
9.25379714e+15
9.32683269e+15
9.39525293e+15
9.45872676e+15
9.51695334e+15
9.56967416e+15
9.6166865e+15
9.65785774e+15
9.69313976e+15
9.72258191e+15
9.74634018e+15
9.76467903e+15
9.77796142e+15
9.78661961e+15
9.79110461e+15
6.00037309e+14
7.21790715e+14
8.43690382e+14
9.65779155e+14
1.08806239e+15
1.21052007e+15
1.33311354e+15
1.45579035e+15
1.57848797e+15
1.70113675e+15
1.82366236e+15
1.9459878e+15
2.0680351e+15
2.18972675e+15
2.31098685e+15
2.4317421e+15
2.55192257e+15
2.67146238e+15
2.79030015e+15
2.9083794e+15
3.02564886e+15
3.14206267e+15
3.25758053e+15
3.3721678e+15
3.48579552e+15
3.59844047e+15
3.71008514e+15
3.82071768e+15
3.93033189e+15
4.03892709e+15
4.14650814e+15
4.25308525e+15
4.35867397e+15
4.46329503e+15
4.56697423e+15
4.66974234e+15
4.77163492e+15
4.87269219e+15
4.97295883e+15
5.07248383e+15
5.1713202e+15
5.26952479e+15
5.36715801e+15
5.46428351e+15
5.56096784e+15
5.65728011e+15
5.75329155e+15
5.84907509e+15
5.9447048e+15
6.0402554e+15
6.13580163e+15
6.23141758e+15
6.32717598e+15
6.42314744e+15
6.51939953e+15
6.61589915e+15
6.71315988e+15
6.81119829e+15