/*--------------------------------*- C++ -*----------------------------------*\
| =========                 |                                                 |
| \\      /  F ield         | OpenFOAM Extend Project: Open source CFD        |
|  \\    /   O peration     | Version:  1.6-ext                               |
|   \\  /    A nd           | Web:      www.extend-project.de                 |
|    \\/     M anipulation  |                                                 |
\*---------------------------------------------------------------------------*/
FoamFile
{
    version     2.0;
    format      ascii;
    class       volScalarField;
    location    "4000";
    object      prec7_adj;
}
// * * * * * * * * * * * * * * * * * * * * * * * * * * * * * * * * * * * * * //

dimensions      [0 -2 -1 0 0 0 0];

internalField   nonuniform List<scalar> 
40000
(
2.0663131e+16
2.44124673e+16
2.8190763e+16
3.20018812e+16
3.58478098e+16
3.97310235e+16
4.36444928e+16
4.75904281e+16
5.15683012e+16
5.55775337e+16
5.96175134e+16
6.36876038e+16
6.77871494e+16
7.19154794e+16
7.60719092e+16
8.02557406e+16
8.44662622e+16
8.87027487e+16
9.296446e+16
9.72506401e+16
1.01560516e+17
1.05893297e+17
1.10248173e+17
1.14624313e+17
1.19020864e+17
1.23436951e+17
1.27871673e+17
1.32324106e+17
1.36793297e+17
1.41278268e+17
1.45778011e+17
1.50291489e+17
1.54817633e+17
1.59355345e+17
1.63903491e+17
1.68460906e+17
1.73026389e+17
1.77598704e+17
1.82176577e+17
1.86758699e+17
1.91343719e+17
1.95930248e+17
2.00516857e+17
2.05102072e+17
2.0968438e+17
2.1426222e+17
2.18833988e+17
2.23398033e+17
2.27952656e+17
2.3249611e+17
2.37026605e+17
2.41542352e+17
2.46041963e+17
2.5052785e+17
2.54995746e+17
2.59440805e+17
2.63860868e+17
2.68253715e+17
2.72617064e+17
2.76948567e+17
2.81245812e+17
2.85506322e+17
2.89727553e+17
2.93906891e+17
2.98041655e+17
3.0212909e+17
3.06166371e+17
3.10150596e+17
3.1407879e+17
3.17947897e+17
3.21754783e+17
3.25496233e+17
3.29168948e+17
3.32769543e+17
3.36294546e+17
3.39740396e+17
3.43103439e+17
3.46379926e+17
3.49566013e+17
3.52657756e+17
3.55651108e+17
3.58541916e+17
3.61325922e+17
3.63998753e+17
3.66555926e+17
3.68992835e+17
3.71304758e+17
3.73486847e+17
3.75534129e+17
3.77441504e+17
3.79203745e+17
3.80815501e+17
3.82271298e+17
3.83565552e+17
3.84692577e+17
3.85646601e+17
3.86421787e+17
3.87012243e+17
3.87412062e+17
3.87615276e+17
2.44152489e+16
2.88759327e+16
3.33701935e+16
3.79140859e+16
4.24974627e+16
4.71223199e+16
5.1789262e+16
5.6497889e+16
6.12475705e+16
6.60375231e+16
7.08668604e+16
7.57346255e+16
8.06398125e+16
8.55813807e+16
9.05582632e+16
9.55693731e+16
1.00613607e+17
1.05689845e+17
1.10796956e+17
1.15933793e+17
1.21099194e+17
1.26291983e+17
1.3151097e+17
1.36754944e+17
1.4202268e+17
1.47312933e+17
1.52624437e+17
1.57955908e+17
1.63306037e+17
1.68673495e+17
1.74056927e+17
1.79454955e+17
1.84866175e+17
1.90289156e+17
1.95722438e+17
2.01164534e+17
2.06613928e+17
2.1206907e+17
2.1752838e+17
2.22990244e+17
2.28453013e+17
2.33915002e+17
2.39374488e+17
2.4482971e+17
2.50278866e+17
2.5572011e+17
2.61151557e+17
2.66571275e+17
2.71977297e+17
2.77367636e+17
2.82740371e+17
2.88093934e+17
2.93428147e+17
2.98747973e+17
3.04051954e+17
3.09326622e+17
3.14569453e+17
3.19777862e+17
3.24949191e+17
3.30080718e+17
3.35169651e+17
3.40213128e+17
3.45208215e+17
3.50151906e+17
3.55041119e+17
3.59872696e+17
3.64643401e+17
3.69349915e+17
3.73988838e+17
3.78556686e+17
3.83049883e+17
3.87464768e+17
3.91797583e+17
3.96044477e+17
4.00201498e+17
4.04264595e+17
4.0822961e+17
4.12092274e+17
4.15848209e+17
4.19492914e+17
4.23021771e+17
4.26430029e+17
4.29712805e+17
4.32865077e+17
4.3588167e+17
4.38757259e+17
4.41486351e+17
4.4406328e+17
4.46482203e+17
4.48737083e+17
4.50821693e+17
4.52729606e+17
4.54454201e+17
4.55988669e+17
4.5732603e+17
4.58459156e+17
4.59380812e+17
4.60083679e+17
4.60560438e+17
4.60803674e+17
2.81973723e+16
3.33760463e+16
3.86070436e+16
4.388117e+16
4.92040921e+16
5.45769978e+16
6.00003842e+16
6.54742089e+16
7.09980273e+16
7.65711003e+16
8.21924739e+16
8.78610379e+16
9.35755682e+16
9.93347563e+16
1.05137232e+17
1.10981576e+17
1.16866334e+17
1.22790022e+17
1.28751128e+17
1.34748123e+17
1.40779455e+17
1.46843555e+17
1.52938834e+17
1.59063685e+17
1.65216486e+17
1.71395591e+17
1.77599337e+17
1.83826043e+17
1.90074005e+17
1.96341497e+17
2.02626775e+17
2.08928067e+17
2.15243583e+17
2.21571506e+17
2.27909993e+17
2.34257179e+17
2.4061117e+17
2.46970042e+17
2.53331847e+17
2.59694602e+17
2.66056297e+17
2.72414885e+17
2.78768289e+17
2.85114393e+17
2.91451046e+17
2.97776061e+17
3.04087216e+17
3.10382262e+17
3.16658951e+17
3.22915097e+17
3.29148751e+17
3.35358637e+17
3.415453e+17
3.4771409e+17
3.53869588e+17
3.59988559e+17
3.66068093e+17
3.72105211e+17
3.78096868e+17
3.84039953e+17
3.89931287e+17
3.95767622e+17
4.01545639e+17
4.07261947e+17
4.12913081e+17
4.18495502e+17
4.24005589e+17
4.29439645e+17
4.34793886e+17
4.40064444e+17
4.4524736e+17
4.50338583e+17
4.55333966e+17
4.60229262e+17
4.65020117e+17
4.69702069e+17
4.7427054e+17
4.78720832e+17
4.83048117e+17
4.87247432e+17
4.9131367e+17
4.95241567e+17
4.99025695e+17
5.02660449e+17
5.06140028e+17
5.09458425e+17
5.12609407e+17
5.15586498e+17
5.18382961e+17
5.20991777e+17
5.23405636e+17
5.25616922e+17
5.27617712e+17
5.29399785e+17
5.30954646e+17
5.32273563e+17
5.33347638e+17
5.34167856e+17
5.34725222e+17
5.35010653e+17
3.20109822e+16
3.79230556e+16
4.38844161e+16
4.98979091e+16
5.59666847e+16
6.20925691e+16
6.82766711e+16
7.45194573e+16
8.08208593e+16
8.71803786e+16
9.3597179e+16
1.00070162e+17
1.06598026e+17
1.13179314e+17
1.19812449e+17
1.26495756e+17
1.33227492e+17
1.4000585e+17
1.46828977e+17
1.53694979e+17
1.60601927e+17
1.67547864e+17
1.745308e+17
1.81548723e+17
1.88599594e+17
1.9568135e+17
2.02791904e+17
2.09929147e+17
2.17090944e+17
2.24275139e+17
2.3147955e+17
2.38701973e+17
2.45940179e+17
2.53191917e+17
2.60454908e+17
2.6772685e+17
2.75005415e+17
2.82288249e+17
2.8957297e+17
2.96857171e+17
3.04138412e+17
3.11414227e+17
3.1868212e+17
3.25939561e+17
3.33183995e+17
3.40412838e+17
3.47623493e+17
3.54813366e+17
3.61979918e+17
3.69120767e+17
3.76233914e+17
3.83318228e+17
3.90374493e+17
3.97407703e+17
4.04430207e+17
4.11408284e+17
4.18338604e+17
4.25217778e+17
4.32042355e+17
4.3880882e+17
4.45513601e+17
4.52153057e+17
4.58723489e+17
4.6522113e+17
4.71642145e+17
4.77982631e+17
4.84238615e+17
4.90406048e+17
4.96480802e+17
5.0245867e+17
5.0833536e+17
5.1410649e+17
5.19767583e+17
5.25314061e+17
5.30741243e+17
5.3604433e+17
5.41218404e+17
5.46258414e+17
5.51159168e+17
5.55915319e+17
5.60521352e+17
5.64971568e+17
5.69260062e+17
5.73380708e+17
5.77327132e+17
5.81092684e+17
5.84670412e+17
5.88053031e+17
5.91232891e+17
5.94201944e+17
5.96951721e+17
5.99473311e+17
6.0175735e+17
6.03794035e+17
6.05573156e+17
6.07084157e+17
6.08316235e+17
6.09258437e+17
6.0989986e+17
6.10229548e+17
3.58568649e+16
4.25025755e+16
4.92021857e+16
5.59608794e+16
6.27812743e+16
6.96655751e+16
7.6615404e+16
8.36317522e+16
9.07150144e+16
9.78650596e+16
1.05081311e+17
1.12362822e+17
1.19708347e+17
1.271164e+17
1.34585297e+17
1.421132e+17
1.49698145e+17
1.57338066e+17
1.65030811e+17
1.72774159e+17
1.80565829e+17
1.88403486e+17
1.96284752e+17
2.04207206e+17
2.12168388e+17
2.20165803e+17
2.28196922e+17
2.36259183e+17
2.44349995e+17
2.52466733e+17
2.60606747e+17
2.68767354e+17
2.76945848e+17
2.8513949e+17
2.93345519e+17
3.01561143e+17
3.09783547e+17
3.18009887e+17
3.26237294e+17
3.34462871e+17
3.42683696e+17
3.50896821e+17
3.59099273e+17
3.67288054e+17
3.75460151e+17
3.83612539e+17
3.91742204e+17
3.99846175e+17
4.07921594e+17
4.15965841e+17
4.23976786e+17
4.31953259e+17
4.39895961e+17
4.47809246e+17
4.55714267e+17
4.63566322e+17
4.71361637e+17
4.79096389e+17
4.867667e+17
4.94368641e+17
5.01898233e+17
5.09351445e+17
5.16724192e+17
5.24012338e+17
5.31211693e+17
5.38318009e+17
5.45326977e+17
5.52234229e+17
5.5903533e+17
5.65725772e+17
5.72300976e+17
5.78756279e+17
5.8508693e+17
5.91288086e+17
5.97354796e+17
6.03281998e+17
6.09064503e+17
6.14696982e+17
6.2017395e+17
6.25489752e+17
6.30638535e+17
6.3561423e+17
6.40410521e+17
6.45020818e+17
6.49438213e+17
6.5365545e+17
6.57664876e+17
6.61458397e+17
6.65027429e+17
6.68362854e+17
6.71454976e+17
6.74293491e+17
6.76867474e+17
6.79165388e+17
6.81175131e+17
6.82884122e+17
6.84279441e+17
6.85347978e+17
6.86076705e+17
6.86452615e+17
3.97359572e+16
4.71145098e+16
5.45574457e+16
6.2066525e+16
6.96440239e+16
7.729223e+16
8.50130987e+16
9.28080695e+16
1.00678004e+17
1.08623195e+17
1.16643416e+17
1.24737982e+17
1.32905812e+17
1.41145499e+17
1.49455355e+17
1.57833465e+17
1.66277726e+17
1.74785876e+17
1.8335552e+17
1.91984154e+17
2.00669177e+17
2.09407907e+17
2.18197587e+17
2.27035397e+17
2.35918457e+17
2.44843835e+17
2.53808546e+17
2.62809559e+17
2.71843801e+17
2.80908155e+17
2.89999465e+17
2.99114538e+17
3.08250145e+17
3.17403023e+17
3.26569876e+17
3.35747378e+17
3.44932172e+17
3.54120873e+17
3.63310068e+17
3.72496319e+17
3.81676165e+17
3.90846119e+17
4.0000268e+17
4.09142332e+17
4.18261557e+17
4.27356848e+17
4.36424743e+17
4.4546187e+17
4.54465032e+17
4.63431365e+17
4.72358597e+17
4.81245519e+17
4.90092825e+17
4.98904602e+17
5.07701317e+17
5.16442256e+17
5.2511686e+17
5.33720848e+17
5.42249899e+17
5.50699653e+17
5.59065716e+17
5.67343657e+17
5.75529011e+17
5.83617276e+17
5.91603912e+17
5.99484343e+17
6.07253948e+17
6.14908062e+17
6.22441972e+17
6.29850908e+17
6.37130043e+17
6.44274479e+17
6.51279244e+17
6.58139279e+17
6.64849428e+17
6.71404421e+17
6.77798862e+17
6.84027211e+17
6.90083756e+17
6.95962596e+17
7.01657605e+17
7.07162405e+17
7.12470323e+17
7.17574347e+17
7.22467083e+17
7.27140692e+17
7.31586836e+17
7.35796612e+17
7.39760485e+17
7.43468228e+17
7.46908859e+17
7.500706e+17
7.52940856e+17
7.55506224e+17
7.57752556e+17
7.59665071e+17
7.61228539e+17
7.62427494e+17
7.63246591e+17
7.63670596e+17
4.36416794e+16
5.17580694e+16
5.99479613e+16
6.82118847e+16
7.65514723e+16
8.49688223e+16
9.3466019e+16
1.02044822e+17
1.10706504e+17
1.19451785e+17
1.2828083e+17
1.37193283e+17
1.46188317e+17
1.5526469e+17
1.64420801e+17
1.73654744e+17
1.82964353e+17
1.92347239e+17
2.01800824e+17
2.1132237e+17
2.20908997e+17
2.30557703e+17
2.4026538e+17
2.50028823e+17
2.59844737e+17
2.69709752e+17
2.79620423e+17
2.89573238e+17
2.99564623e+17
3.09590944e+17
3.19648516e+17
3.29733599e+17
3.3984241e+17
3.4997112e+17
3.60115857e+17
3.70272713e+17
3.80437745e+17
3.90606976e+17
4.00776401e+17
4.10941987e+17
4.21099682e+17
4.31245415e+17
4.41375106e+17
4.51484675e+17
4.61570058e+17
4.71627235e+17
4.81652263e+17
4.91641346e+17
5.01590936e+17
5.11497905e+17
5.21359829e+17
5.31175456e+17
5.4094549e+17
5.50673924e+17
5.60370289e+17
5.70015016e+17
5.79583252e+17
5.89070237e+17
5.98471188e+17
6.077813e+17
6.16995753e+17
6.2610971e+17
6.35118323e+17
6.44016725e+17
6.52800039e+17
6.61463368e+17
6.70001796e+17
6.78410386e+17
6.86684171e+17
6.94818151e+17
7.02807287e+17
7.10646486e+17
7.18330599e+17
7.25854399e+17
7.33212573e+17
7.40399701e+17
7.47410236e+17
7.5423848e+17
7.60878553e+17
7.67324365e+17
7.73569572e+17
7.79607536e+17
7.85431275e+17
7.910334e+17
7.96406059e+17
8.01540857e+17
8.06428784e+17
8.11060126e+17
8.15424385e+17
8.19510189e+17
8.23305223e+17
8.26796164e+17
8.29968654e+17
8.32807316e+17
8.3529582e+17
8.37417031e+17
8.3915324e+17
8.40486446e+17
8.41398806e+17
8.41872691e+17
4.75760156e+16
5.64322566e+16
6.53720367e+16
7.43945615e+16
8.35006295e+16
9.26919347e+16
1.01970498e+17
1.11338254e+17
1.20796797e+17
1.30347234e+17
1.39990127e+17
1.49725484e+17
1.59552786e+17
1.69471026e+17
1.79478767e+17
1.89574185e+17
1.99755123e+17
2.10019132e+17
2.20363511e+17
2.30785338e+17
2.412815e+17
2.51848712e+17
2.62483537e+17
2.73182406e+17
2.83941625e+17
2.94757388e+17
3.05625788e+17
3.16542826e+17
3.27504413e+17
3.38506382e+17
3.49544492e+17
3.60614434e+17
3.71711834e+17
3.82832262e+17
3.93971235e+17
4.05124222e+17
4.16286647e+17
4.27453898e+17
4.38621331e+17
4.49784271e+17
4.60938026e+17
4.72077893e+17
4.83199165e+17
4.94297151e+17
5.05367195e+17
5.16404708e+17
5.27405216e+17
5.38364431e+17
5.49278364e+17
5.60143499e+17
5.70957068e+17
5.8171749e+17
5.92425062e+17
6.03083089e+17
6.13699702e+17
6.24263083e+17
6.34739312e+17
6.45123127e+17
6.55409261e+17
6.6559245e+17
6.75667438e+17
6.85628974e+17
6.95471822e+17
7.05190755e+17
7.14780559e+17
7.24236027e+17
7.33551965e+17
7.42723177e+17
7.51744468e+17
7.60610634e+17
7.69316453e+17
7.77856674e+17
7.86226005e+17
7.94419097e+17
8.02430522e+17
8.10254757e+17
8.17886149e+17
8.25318894e+17
8.32546993e+17
8.39564214e+17
8.46364042e+17
8.52939625e+17
8.5928371e+17
8.65388567e+17
8.71245914e+17
8.7684682e+17
8.82181613e+17
8.87239771e+17
8.92009817e+17
8.96479213e+17
9.00634267e+17
9.04460053e+17
9.0794038e+17
9.11057797e+17
9.13793681e+17
9.16128411e+17
9.1804165e+17
9.19512701e+17
9.20521049e+17
9.21046514e+17
5.15385451e+16
6.11363217e+16
7.08283809e+16
8.06126394e+16
9.04889752e+16
1.00458533e+17
1.10523111e+17
1.20684685e+17
1.30945063e+17
1.41305679e+17
1.51767466e+17
1.62330802e+17
1.72995507e+17
1.8376086e+17
1.94625639e+17
2.05588169e+17
2.16646365e+17
2.27797779e+17
2.39039643e+17
2.50368905e+17
2.61782258e+17
2.73276174e+17
2.8484692e+17
2.96490582e+17
3.08203082e+17
3.1998019e+17
3.31817541e+17
3.43710641e+17
3.55654882e+17
3.67645547e+17
3.79677821e+17
3.917468e+17
4.03847496e+17
4.15974846e+17
4.2812372e+17
4.40288926e+17
4.5246522e+17
4.64647311e+17
4.76829871e+17
4.89007544e+17
5.01174952e+17
5.13326713e+17
5.2545745e+17
5.37561817e+17
5.49634519e+17
5.61670356e+17
5.73664269e+17
5.85611427e+17
5.97507336e+17
6.09348018e+17
6.21130269e+17
6.32852068e+17
6.44513188e+17
6.56116161e+17
6.67667781e+17
6.7916462e+17
6.9056319e+17
7.01857704e+17
7.13042396e+17
7.24111525e+17
7.35059385e+17
7.45880305e+17
7.56568656e+17
7.67118846e+17
7.77525331e+17
7.87782601e+17
7.9788519e+17
8.07827662e+17
8.1760461e+17
8.27210647e+17
8.36640397e+17
8.45888477e+17
8.54949487e+17
8.63817986e+17
8.72488473e+17
8.80955358e+17
8.89212927e+17
8.97255307e+17
9.05076423e+17
9.12669942e+17
9.20029218e+17
9.27147222e+17
9.34016462e+17
9.40628898e+17
9.4697584e+17
9.53047841e+17
9.58834575e+17
9.64324714e+17
9.69505793e+17
9.74364087e+17
9.78884495e+17
9.83050446e+17
9.86843851e+17
9.90245111e+17
9.93233219e+17
9.95785952e+17
9.97880217e+17
9.99492473e+17
1.00059938e+18
1.00117803e+18
5.55288708e+16
6.58696741e+16
7.63159973e+16
8.68645911e+16
9.75144131e+16
1.08265981e+17
1.19120762e+17
1.3008065e+17
1.41147573e+17
1.52323215e+17
1.63608837e+17
1.75005176e+17
1.86512398e+17
1.98130095e+17
2.09857304e+17
2.21692545e+17
2.33633858e+17
2.45678851e+17
2.5782474e+17
2.70068388e+17
2.82406343e+17
2.94834866e+17
3.0734996e+17
3.19947393e+17
3.32622719e+17
3.45371299e+17
3.58188311e+17
3.7106877e+17
3.84007542e+17
3.96999351e+17
4.10038794e+17
4.2312035e+17
4.36238394e+17
4.49387205e+17
4.62560974e+17
4.75753817e+17
4.88959784e+17
5.0217287e+17
5.15387026e+17
5.28596168e+17
5.41794197e+17
5.54975009e+17
5.68132514e+17
5.81260667e+17
5.94353491e+17
6.07405125e+17
6.20409881e+17
6.33362326e+17
6.46257403e+17
6.59090595e+17
6.71858183e+17
6.8455761e+17
6.97188037e+17
7.09751167e+17
7.22252517e+17
7.34697528e+17
7.47032749e+17
7.59251846e+17
7.71348531e+17
7.83316574e+17
7.95149804e+17
8.0684212e+17
8.18387493e+17
8.29779967e+17
8.41013661e+17
8.52082773e+17
8.62981567e+17
8.7370438e+17
8.84245608e+17
8.94599699e+17
9.04761139e+17
9.1472444e+17
9.2448412e+17
9.34034676e+17
9.43370564e+17
9.52486157e+17
9.61375716e+17
9.70033334e+17
9.78452893e+17
9.86627996e+17
9.94551895e+17
1.00221741e+18
1.00961685e+18
1.01674189e+18
1.02358343e+18
1.03013155e+18
1.03637526e+18
1.04230243e+18
1.04789961e+18
1.05315188e+18
1.05804268e+18
1.06255379e+18
1.06666515e+18
1.07035498e+18
1.07359979e+18
1.07637468e+18
1.07865368e+18
1.08041027e+18
1.08161813e+18
1.08225151e+18
5.95466004e+16
7.0631822e+16
8.18340987e+16
9.31491937e+16
1.0457521e+17
1.16112024e+17
1.27760704e+17
1.39522976e+17
1.51400802e+17
1.63396045e+17
1.75510243e+17
1.8774446e+17
2.00099205e+17
2.12574393e+17
2.25169347e+17
2.37882815e+17
2.50713007e+17
2.63657628e+17
2.76713924e+17
2.89878718e+17
3.03148449e+17
3.16519205e+17
3.29986754e+17
3.43546572e+17
3.57193866e+17
3.70923598e+17
3.84730501e+17
3.98609103e+17
4.12553738e+17
4.26558565e+17
4.40617582e+17
4.54724637e+17
4.68873448e+17
4.83057611e+17
4.97270613e+17
5.11505849e+17
5.25756633e+17
5.40016211e+17
5.54277776e+17
5.68534486e+17
5.82779476e+17
5.97005882e+17
6.11206865e+17
6.25375635e+17
6.39505492e+17
6.53589869e+17
6.67622398e+17
6.81596994e+17
6.95507972e+17
7.09350215e+17
7.23119412e+17
7.36812394e+17
7.50427636e+17
7.63965975e+17
7.77431698e+17
7.90839482e+17
8.04125598e+17
8.17283144e+17
8.30305292e+17
8.43185302e+17
8.55916527e+17
8.68492425e+17
8.80906557e+17
8.93152597e+17
9.0522433e+17
9.17115654e+17
9.28820577e+17
9.4033321e+17
9.51647762e+17
9.62758529e+17
9.73659878e+17
9.84346233e+17
9.94812049e+17
1.00505179e+18
1.01505988e+18
1.02483069e+18
1.03435849e+18
1.04363736e+18
1.05266116e+18
1.06142346e+18
1.06991745e+18
1.07813582e+18
1.08607069e+18
1.09371346e+18
1.10105468e+18
1.10808392e+18
1.11478957e+18
1.1211587e+18
1.12717685e+18
1.1328279e+18
1.13809385e+18
1.14295475e+18
1.14738861e+18
1.15137135e+18
1.154877e+18
1.15787786e+18
1.16034501e+18
1.16224883e+18
1.1635599e+18
1.16424943e+18
6.35913356e+16
7.54223324e+16
8.73820447e+16
9.94654583e+16
1.11669936e+17
1.23994746e+17
1.36440534e+17
1.4900881e+17
1.61701499e+17
1.74520578e+17
1.87467814e+17
2.00544563e+17
2.13751657e+17
2.27089333e+17
2.40557213e+17
2.54154297e+17
2.67878994e+17
2.81729143e+17
2.95702055e+17
3.09794551e+17
3.24002997e+17
3.3832334e+17
3.52751143e+17
3.67281613e+17
3.81909629e+17
3.96629769e+17
4.11436334e+17
4.26323366e+17
4.4128467e+17
4.56313837e+17
4.71404254e+17
4.86549128e+17
5.01741504e+17
5.16974275e+17
5.32240203e+17
5.47531937e+17
5.62842025e+17
5.78162936e+17
5.93487076e+17
6.08806806e+17
6.24114465e+17
6.39402393e+17
6.5466296e+17
6.69888595e+17
6.85071832e+17
7.00205355e+17
7.15282069e+17
7.30295183e+17
7.45238334e+17
7.6010574e+17
7.74892433e+17
7.89594566e+17
8.04209868e+17
8.18738282e+17
8.33182899e+17
8.47567919e+17
8.61819086e+17
8.75928904e+17
8.89889987e+17
9.03695067e+17
9.17337008e+17
9.30808809e+17
9.44103617e+17
9.57214725e+17
9.70135581e+17
9.82859781e+17
9.95381075e+17
1.00769335e+18
1.01979065e+18
1.0316671e+18
1.04331698e+18
1.05473463e+18
1.06591447e+18
1.07685092e+18
1.08753843e+18
1.09797137e+18
1.10814402e+18
1.11805049e+18
1.12768466e+18
1.13704006e+18
1.14610983e+18
1.15488657e+18
1.16336223e+18
1.17152795e+18
1.17937393e+18
1.18688927e+18
1.19406172e+18
1.20087755e+18
1.20732132e+18
1.21337569e+18
1.21902122e+18
1.22423624e+18
1.22899674e+18
1.23327639e+18
1.23704663e+18
1.24027695e+18
1.24293537e+18
1.2449891e+18
1.24640544e+18
1.24715248e+18
6.76626661e+16
8.02408047e+16
9.29592961e+16
1.05812573e+17
1.18797405e+17
1.31912524e+17
1.45158174e+17
1.5853562e+17
1.72046708e+17
1.85693483e+17
1.99477889e+17
2.1340154e+17
2.27465567e+17
2.41670521e+17
2.56016321e+17
2.70502236e+17
2.85126891e+17
2.99888286e+17
3.14783829e+17
3.29810366e+17
3.44964222e+17
3.60241232e+17
3.75636778e+17
3.91145822e+17
4.06762937e+17
4.2248233e+17
4.38297878e+17
4.54203146e+17
4.70191414e+17
4.86255699e+17
5.02388777e+17
5.18583202e+17
5.34831331e+17
5.51125342e+17
5.67457252e+17
5.83818941e+17
6.0020217e+17
6.16598604e+17
6.32999832e+17
6.4939739e+17
6.6578279e+17
6.82147541e+17
6.98483187e+17
7.14781341e+17
7.3103373e+17
7.47232248e+17
7.63369028e+17
7.79436529e+17
7.95427651e+17
8.11335897e+17
8.2715558e+17
8.4288212e+17
8.58512451e+17
8.74045593e+17
8.89483474e+17
9.04860031e+17
9.20090286e+17
9.35166128e+17
9.5007959e+17
9.64822861e+17
9.79388296e+17
9.93768426e+17
1.00795597e+18
1.02194382e+18
1.0357251e+18
1.04929308e+18
1.06264127e+18
1.07576331e+18
1.08865308e+18
1.10130458e+18
1.11371196e+18
1.12586951e+18
1.1377716e+18
1.14941266e+18
1.16078714e+18
1.17188944e+18
1.18271388e+18
1.1932546e+18
1.20350549e+18
1.21346011e+18
1.22311154e+18
1.2324523e+18
1.24147418e+18
1.25016809e+18
1.2585239e+18
1.26653021e+18
1.27417418e+18
1.28144128e+18
1.28831508e+18
1.29477704e+18
1.30080625e+18
1.30637933e+18
1.31147027e+18
1.31605043e+18
1.32008866e+18
1.32355158e+18
1.32640411e+18
1.32861015e+18
1.33013367e+18
1.33093944e+18
7.17601661e+16
8.50868531e+16
9.85653813e+16
1.12189861e+17
1.2595663e+17
1.39863992e+17
1.53911832e+17
1.68101179e+17
1.8243378e+17
1.96911712e+17
2.11537059e+17
2.26311658e+17
2.41236916e+17
2.56313679e+17
2.71542162e+17
2.86921903e+17
3.02451757e+17
3.18129904e+17
3.33953867e+17
3.49920546e+17
3.66026246e+17
3.82266717e+17
3.98637182e+17
4.1513238e+17
4.3174659e+17
4.4847367e+17
4.6530708e+17
4.82239917e+17
4.99264939e+17
5.1637459e+17
5.33561029e+17
5.50816154e+17
5.68131625e+17
5.85498888e+17
6.02909203e+17
6.20353663e+17
6.37823222e+17
6.55308716e+17
6.72800893e+17
6.90290441e+17
7.07768011e+17
7.25224254e+17
7.42649857e+17
7.6003558e+17
7.77372309e+17
7.94651108e+17
8.11863296e+17
8.29000536e+17
8.46054948e+17
8.63019263e+17
8.7988703e+17
8.96652881e+17
9.13312913e+17
9.29865201e+17
9.46310525e+17
9.62692731e+17
9.78915965e+17
9.9497148e+17
1.01085071e+18
1.02654527e+18
1.04204701e+18
1.05734795e+18
1.07244038e+18
1.08731681e+18
1.10196997e+18
1.11639285e+18
1.13057866e+18
1.14452085e+18
1.15821309e+18
1.17164926e+18
1.18482341e+18
1.19772976e+18
1.21036265e+18
1.2227165e+18
1.23478579e+18
1.24656497e+18
1.25804838e+18
1.26923021e+18
1.2801044e+18
1.2906645e+18
1.30090359e+18
1.31081409e+18
1.32038767e+18
1.32961501e+18
1.33848562e+18
1.34698768e+18
1.35510771e+18
1.36283042e+18
1.3701384e+18
1.37701189e+18
1.38342855e+18
1.38936328e+18
1.39478806e+18
1.39967196e+18
1.4039812e+18
1.40767953e+18
1.41072867e+18
1.4130892e+18
1.41472161e+18
1.41558725e+18
7.58833916e+16
8.99600937e+16
1.04199872e+17
1.18596738e+17
1.33146779e+17
1.47847989e+17
1.62699968e+17
1.77703542e+17
1.92860358e+17
2.08172507e+17
2.23642186e+17
2.39271429e+17
2.55061891e+17
2.710147e+17
2.87130353e+17
3.03408658e+17
3.19848704e+17
3.36448861e+17
3.53206783e+17
3.7011944e+17
3.8718314e+17
4.04393563e+17
4.21745798e+17
4.39234373e+17
4.56853296e+17
4.74596083e+17
4.92455792e+17
5.10425058e+17
5.28496121e+17
5.46660856e+17
5.64910805e+17
5.83237201e+17
6.01631003e+17
6.20082919e+17
6.38583433e+17
6.57122839e+17
6.75691266e+17
6.94278704e+17
7.1287504e+17
7.31470086e+17
7.5005361e+17
7.68615378e+17
7.87145189e+17
8.0563292e+17
8.24068581e+17
8.42442372e+17
8.6074476e+17
8.78966569e+17
8.97099096e+17
9.15134256e+17
9.33064784e+17
9.5088448e+17
9.68588567e+17
9.86174153e+17
1.00364088e+18
1.02104263e+18
1.03827256e+18
1.05532126e+18
1.07217955e+18
1.08883846e+18
1.10528928e+18
1.12152355e+18
1.1375331e+18
1.15331e+18
1.16884663e+18
1.18413566e+18
1.19917002e+18
1.21394293e+18
1.22844787e+18
1.24267857e+18
1.25662899e+18
1.27029328e+18
1.28366575e+18
1.29674083e+18
1.309513e+18
1.32197677e+18
1.33412653e+18
1.34595652e+18
1.35746072e+18
1.36863269e+18
1.3794655e+18
1.38995152e+18
1.40008225e+18
1.40984817e+18
1.41923849e+18
1.4282409e+18
1.43684135e+18
1.44502376e+18
1.45276977e+18
1.46005842e+18
1.46686595e+18
1.47316553e+18
1.47892717e+18
1.48411763e+18
1.48870054e+18
1.4926367e+18
1.49588467e+18
1.49840159e+18
1.5001444e+18
1.5010709e+18
8.0031879e+16
9.48601361e+16
1.09862364e+17
1.25032694e+17
1.40367142e+17
1.55863529e+17
1.71521263e+17
1.87341016e+17
2.03324358e+17
2.19473389e+17
2.35790409e+17
2.52277624e+17
2.6893692e+17
2.85769686e+17
3.02776691e+17
3.19958006e+17
3.37312954e+17
3.54840098e+17
3.72537237e+17
3.90401419e+17
4.0842897e+17
4.26615518e+17
4.44956029e+17
4.63444842e+17
4.82075702e+17
5.00841797e+17
5.19735794e+17
5.38749874e+17
5.57875765e+17
5.77104775e+17
5.96427829e+17
6.15835496e+17
6.35318028e+17
6.54865386e+17
6.74467277e+17
6.94113183e+17
7.13792397e+17
7.33494052e+17
7.53207163e+17
7.72920655e+17
7.92623407e+17
8.1230429e+17
8.31952216e+17
8.51556184e+17
8.7110534e+17
8.90589047e+17
9.0999696e+17
9.29319126e+17
9.48546105e+17
9.6766912e+17
9.86680258e+17
1.00557272e+18
1.02434114e+18
1.04298208e+18
1.0614946e+18
1.07988599e+18
1.09813613e+18
1.11619136e+18
1.13404187e+18
1.15167809e+18
1.16909074e+18
1.18627083e+18
1.20320972e+18
1.21989906e+18
1.23633083e+18
1.25249737e+18
1.26839133e+18
1.28400567e+18
1.2993337e+18
1.31436897e+18
1.32910535e+18
1.34353691e+18
1.35765793e+18
1.37146284e+18
1.38494616e+18
1.3981024e+18
1.41092603e+18
1.42341134e+18
1.43555234e+18
1.44734264e+18
1.45877527e+18
1.46984254e+18
1.48053584e+18
1.49084542e+18
1.50076018e+18
1.51026738e+18
1.51935236e+18
1.52799831e+18
1.5361859e+18
1.543893e+18
1.55109443e+18
1.5577617e+18
1.56386281e+18
1.56936226e+18
1.57422107e+18
1.57839714e+18
1.5818458e+18
1.58452074e+18
1.58637526e+18
1.58736352e+18
8.42051437e+16
9.97865761e+16
1.15552465e+17
1.31497264e+17
1.47617098e+17
1.63909763e+17
1.80374577e+17
1.97012127e+17
2.13823941e+17
2.30812144e+17
2.47979133e+17
2.65327277e+17
2.82858676e+17
3.00574965e+17
3.18477174e+17
3.36565624e+17
3.54839872e+17
3.73298675e+17
3.91939975e+17
4.10760913e+17
4.2975784e+17
4.48926343e+17
4.6826128e+17
4.87756808e+17
5.07406425e+17
5.27203001e+17
5.47138821e+17
5.67205619e+17
5.87394617e+17
6.07696562e+17
6.28101762e+17
6.48600124e+17
6.69181188e+17
6.89834167e+17
7.1054798e+17
7.31311293e+17
7.52112548e+17
7.72940012e+17
7.93781806e+17
8.14625951e+17
8.35460409e+17
8.56273126e+17
8.77052085e+17
8.97785358e+17
9.18461169e+17
9.39067959e+17
9.59594476e+17
9.80029869e+17
1.00036381e+18
1.02058666e+18
1.04068962e+18
1.06066504e+18
1.0805067e+18
1.10021026e+18
1.11977382e+18
1.13919874e+18
1.15848235e+18
1.17755726e+18
1.196413e+18
1.21503935e+18
1.23342646e+18
1.25156481e+18
1.26944525e+18
1.28705898e+18
1.30439759e+18
1.32145306e+18
1.33821774e+18
1.35468433e+18
1.37084593e+18
1.38669594e+18
1.40222809e+18
1.4174364e+18
1.43231508e+18
1.44685857e+18
1.46106139e+18
1.4749181e+18
1.48842321e+18
1.50157107e+18
1.51435573e+18
1.5267708e+18
1.53880933e+18
1.55046355e+18
1.56172473e+18
1.57258292e+18
1.5830267e+18
1.5930429e+18
1.6026163e+18
1.61172933e+18
1.62036172e+18
1.6284902e+18
1.63608821e+18
1.64312557e+18
1.64956837e+18
1.65537883e+18
1.6605154e+18
1.66493306e+18
1.66858395e+18
1.67141824e+18
1.67338556e+18
1.67443632e+18
8.84026786e+16
1.0473899e+17
1.21269777e+17
1.37990009e+17
1.54896096e+17
1.71985952e+17
1.89258922e+17
2.06715588e+17
2.24357487e+17
2.42186795e+17
2.60206015e+17
2.78417676e+17
2.96824081e+17
3.15427101e+17
3.34228013e+17
3.53227383e+17
3.72424992e+17
3.91819788e+17
4.11409862e+17
4.31192446e+17
4.51163923e+17
4.71319849e+17
4.9165498e+17
5.12163304e+17
5.32838079e+17
5.53671867e+17
5.74656579e+17
5.95783511e+17
6.17043383e+17
6.38426386e+17
6.59922214e+17
6.81520111e+17
7.03208908e+17
7.24977065e+17
7.46812709e+17
7.6870368e+17
7.90637566e+17
8.12601748e+17
8.34583444e+17
8.56569753e+17
8.78547699e+17
9.00504283e+17
9.22426537e+17
9.44301578e+17
9.66116679e+17
9.87859335e+17
1.00951736e+18
1.03107897e+18
1.05253292e+18
1.07386866e+18
1.0950765e+18
1.11614788e+18
1.13707563e+18
1.15785444e+18
1.17848133e+18
1.19895645e+18
1.21928651e+18
1.23939401e+18
1.25926775e+18
1.27889689e+18
1.29827097e+18
1.3173799e+18
1.33621401e+18
1.35476405e+18
1.37302118e+18
1.390977e+18
1.40862353e+18
1.42595324e+18
1.44295896e+18
1.45963393e+18
1.47597176e+18
1.49196635e+18
1.50761189e+18
1.52290277e+18
1.53783353e+18
1.55239877e+18
1.56659302e+18
1.58041067e+18
1.59384582e+18
1.60689211e+18
1.61954255e+18
1.63178933e+18
1.64362359e+18
1.65503517e+18
1.66601235e+18
1.67654154e+18
1.68660695e+18
1.69619029e+18
1.70527038e+18
1.71382283e+18
1.72181968e+18
1.72922916e+18
1.73601544e+18
1.7421385e+18
1.74755427e+18
1.75221485e+18
1.75606914e+18
1.75906383e+18
1.76114481e+18
1.76225869e+18
9.26239527e+16
1.09716932e+17
1.27013895e+17
1.44510505e+17
1.62203626e+17
1.80091437e+17
1.98173431e+17
2.1645027e+17
2.34923564e+17
2.53595578e+17
2.7246894e+17
2.91546343e+17
3.10830294e+17
3.30322888e+17
3.50025641e+17
3.69939356e+17
3.90064032e+17
4.10398801e+17
4.30941901e+17
4.51690657e+17
4.72641487e+17
4.93789919e+17
5.15130616e+17
5.36657401e+17
5.583633e+17
5.80240577e+17
6.02280773e+17
6.24474754e+17
6.46812746e+17
6.69284385e+17
6.91878757e+17
7.14584445e+17
7.3738957e+17
7.60281839e+17
7.83248585e+17
8.06276816e+17
8.29353258e+17
8.52464402e+17
8.75596553e+17
8.98735873e+17
9.2186844e+17
9.44980292e+17
9.68057495e+17
9.91086194e+17
1.01405269e+18
1.03694351e+18
1.05974551e+18
1.08244595e+18
1.10503264e+18
1.12749409e+18
1.14981967e+18
1.17199986e+18
1.19402654e+18
1.21589339e+18
1.23759633e+18
1.25913427e+18
1.28052347e+18
1.30167616e+18
1.32258046e+18
1.34322483e+18
1.36359819e+18
1.38368987e+18
1.40348966e+18
1.42298781e+18
1.44217505e+18
1.46104259e+18
1.47958211e+18
1.49778577e+18
1.51564617e+18
1.53315636e+18
1.55030977e+18
1.56710023e+18
1.58352184e+18
1.59956896e+18
1.61523612e+18
1.63051793e+18
1.64540897e+18
1.65990365e+18
1.6739961e+18
1.68767997e+18
1.70094824e+18
1.71379306e+18
1.72620543e+18
1.73817499e+18
1.74968973e+18
1.76073564e+18
1.77129639e+18
1.78135297e+18
1.7908833e+18
1.7998619e+18
1.80825949e+18
1.8160427e+18
1.82317382e+18
1.82961068e+18
1.83530668e+18
1.84021109e+18
1.84426962e+18
1.84742546e+18
1.84962073e+18
1.85079817e+18
9.68684106e+16
1.14719928e+17
1.32784393e+17
1.51058328e+17
1.69539207e+17
1.88225621e+17
2.07117327e+17
2.26215171e+17
2.455209e+17
2.65036915e+17
2.84765998e+17
3.04711021e+17
3.24874695e+17
3.4525934e+17
3.65866705e+17
3.8669782e+17
4.07752895e+17
4.29031244e+17
4.50531245e+17
4.72250315e+17
4.94184908e+17
5.16330527e+17
5.38681743e+17
5.61232221e+17
5.83974761e+17
6.06901333e+17
6.30003118e+17
6.53270554e+17
6.76693379e+17
7.00260681e+17
7.23960942e+17
7.47782084e+17
7.71711524e+17
7.95736213e+17
8.1984269e+17
8.44017131e+17
8.68245397e+17
8.92513082e+17
9.1680557e+17
9.41108083e+17
9.65405737e+17
9.89683601e+17
1.01392676e+18
1.03812036e+18
1.06224973e+18
1.0863004e+18
1.11025824e+18
1.13410953e+18
1.1578411e+18
1.1814405e+18
1.20489613e+18
1.22819748e+18
1.25133545e+18
1.27430266e+18
1.29709396e+18
1.319707e+18
1.34216765e+18
1.36437784e+18