/*--------------------------------*- C++ -*----------------------------------*\
| =========                 |                                                 |
| \\      /  F ield         | OpenFOAM Extend Project: Open source CFD        |
|  \\    /   O peration     | Version:  1.6-ext                               |
|   \\  /    A nd           | Web:      www.extend-project.de                 |
|    \\/     M anipulation  |                                                 |
\*---------------------------------------------------------------------------*/
FoamFile
{
    version     2.0;
    format      ascii;
    class       volScalarField;
    location    "4000";
    object      prec5;
}
// * * * * * * * * * * * * * * * * * * * * * * * * * * * * * * * * * * * * * //

dimensions      [0 -3 0 0 0 0 0];

internalField   nonuniform List<scalar> 
40000
(
9.53232985e+14
1.13107918e+15
1.30986275e+15
1.48993551e+15
1.67148511e+15
1.85502203e+15
2.03871058e+15
2.22320728e+15
2.40849756e+15
2.59457993e+15
2.78146048e+15
2.96914915e+15
3.1576575e+15
3.34699736e+15
3.53717995e+15
3.72821539e+15
3.92011227e+15
4.11287752e+15
4.3065162e+15
4.50103144e+15
4.69642435e+15
4.89269397e+15
5.08983728e+15
5.28784908e+15
5.486722e+15
5.68644646e+15
5.88701057e+15
6.08840015e+15
6.29059859e+15
6.49358683e+15
6.69734328e+15
6.90184376e+15
7.10706137e+15
7.31296649e+15
7.51952663e+15
7.72670641e+15
7.93446745e+15
8.14276833e+15
8.35156448e+15
8.56080816e+15
8.77044838e+15
8.98043085e+15
9.19069796e+15
9.40118868e+15
9.61183857e+15
9.82257977e+15
1.00333409e+16
1.02440471e+16
1.045462e+16
1.06649777e+16
1.08750347e+16
1.10847019e+16
1.12938867e+16
1.15031263e+16
1.17123335e+16
1.19210297e+16
1.21289439e+16
1.23358925e+16
1.25417273e+16
1.2746313e+16
1.2949518e+16
1.315121e+16
1.33512545e+16
1.35495139e+16
1.37458478e+16
1.3940112e+16
1.41321594e+16
1.43218391e+16
1.45089973e+16
1.46934766e+16
1.4875116e+16
1.50537513e+16
1.52292149e+16
1.54013353e+16
1.55699376e+16
1.57348432e+16
1.58958695e+16
1.60528299e+16
1.62055337e+16
1.6353786e+16
1.64973871e+16
1.66361328e+16
1.67698138e+16
1.68982156e+16
1.70211182e+16
1.71382959e+16
1.72495169e+16
1.73545434e+16
1.7453131e+16
1.75450288e+16
1.76299796e+16
1.77077194e+16
1.77779783e+16
1.78404805e+16
1.78949454e+16
1.79410881e+16
1.79786206e+16
1.80072532e+16
1.80266955e+16
1.80366574e+16
1.13036802e+15
1.34161107e+15
1.55437572e+15
1.77134469e+15
1.98884404e+15
2.20686433e+15
2.42531606e+15
2.64405214e+15
2.86299782e+15
3.08212587e+15
3.30143922e+15
3.52095983e+15
3.74072135e+15
3.96076438e+15
4.18113324e+15
4.40187397e+15
4.62303293e+15
4.84465585e+15
5.06678733e+15
5.28947035e+15
5.51274609e+15
5.73665377e+15
5.96123046e+15
6.1865111e+15
6.41252834e+15
6.63931248e+15
6.8668914e+15
7.09529045e+15
7.3245323e+15
7.5546368e+15
7.78562085e+15
8.01749815e+15
8.25027907e+15
8.48397037e+15
8.71857499e+15
8.9540918e+15
9.19051539e+15
9.42783574e+15
9.66603802e+15
9.90510232e+15
1.01450034e+16
1.03857104e+16
1.06271867e+16
1.08693896e+16
1.11122703e+16
1.13557733e+16
1.15998368e+16
1.1844392e+16
1.20893633e+16
1.23346682e+16
1.25802168e+16
1.28259122e+16
1.30716498e+16
1.33179131e+16
1.35653523e+16
1.38134105e+16
1.40616515e+16
1.43097209e+16
1.45573194e+16
1.48041845e+16
1.50500767e+16
1.52947714e+16
1.55380524e+16
1.57797073e+16
1.60195251e+16
1.6257294e+16
1.64928e+16
1.67258262e+16
1.69561523e+16
1.71835541e+16
1.74078035e+16
1.76286685e+16
1.78459127e+16
1.80592958e+16
1.82685733e+16
1.84734965e+16
1.86738124e+16
1.88692638e+16
1.9059589e+16
1.92445214e+16
1.94237899e+16
1.95971182e+16
1.97642245e+16
1.99248216e+16
2.00786165e+16
2.02253099e+16
2.03645965e+16
2.04961645e+16
2.0619696e+16
2.07348669e+16
2.08413473e+16
2.09388023e+16
2.10268923e+16
2.11052745e+16
2.11736035e+16
2.12315323e+16
2.12787131e+16
2.13147991e+16
2.13394409e+16
2.13522999e+16
1.3081884e+15
1.55294708e+15
1.80345874e+15
2.05531235e+15
2.30854131e+15
2.56249529e+15
2.81672766e+15
3.07094805e+15
3.32497842e+15
3.57871934e+15
3.83212574e+15
4.08518977e+15
4.33792896e+15
4.59037794e+15
4.84258277e+15
5.09459704e+15
5.34647912e+15
5.59829035e+15
5.85009378e+15
6.10195326e+15
6.35393294e+15
6.60609688e+15
6.85850874e+15
7.11123164e+15
7.36432803e+15
7.61785953e+15
7.87188681e+15
8.12646945e+15
8.38166579e+15
8.63753267e+15
8.89412526e+15
9.15149673e+15
9.40969798e+15
9.66877726e+15
9.92877983e+15
1.01897475e+16
1.04517182e+16
1.07147255e+16
1.09787983e+16
1.124396e+16
1.15102281e+16
1.17776139e+16
1.20461217e+16
1.23157483e+16
1.25864828e+16
1.28583054e+16
1.31311876e+16
1.34050914e+16
1.36799688e+16
1.39557614e+16
1.42324001e+16
1.45098042e+16
1.47878813e+16
1.5066859e+16
1.53479262e+16
1.56305928e+16
1.59144285e+16
1.61990477e+16
1.64840981e+16
1.6769251e+16
1.70541949e+16
1.73386297e+16
1.76222619e+16
1.7904802e+16
1.81859613e+16
1.84654499e+16
1.87429752e+16
1.90182408e+16
1.92909452e+16
1.95607817e+16
1.98274376e+16
2.0090594e+16
2.03499255e+16
2.06051002e+16
2.08557796e+16
2.11016188e+16
2.13422663e+16
2.15773643e+16
2.18065484e+16
2.20294482e+16
2.22456873e+16
2.24548833e+16
2.26566481e+16
2.28505885e+16
2.30363067e+16
2.32134008e+16
2.33814659e+16
2.35400952e+16
2.36888818e+16
2.38274205e+16
2.39553099e+16
2.40721555e+16
2.41775713e+16
2.42711832e+16
2.43526296e+16
2.44215627e+16
2.44776455e+16
2.45205516e+16
2.4549952e+16
2.4565533e+16
1.48776359e+15
1.76940131e+15
2.05478504e+15
2.34267486e+15
2.632241e+15
2.92270311e+15
3.21347289e+15
3.50412746e+15
3.79437424e+15
4.0840191e+15
4.37294075e+15
4.66107122e+15
4.94838134e+15
5.23487015e+15
5.52055723e+15
5.80547715e+15
6.08967554e+15
6.37320629e+15
6.65612954e+15
6.93851028e+15
7.22041741e+15
7.50192304e+15
7.78310203e+15
8.06403169e+15
8.34479146e+15
8.62546278e+15
8.90612888e+15
9.18687455e+15
9.46778598e+15
9.74895049e+15
1.00304562e+16
1.03123918e+16
1.0594846e+16
1.08779073e+16
1.11616632e+16
1.14462e+16
1.17316018e+16
1.20179504e+16
1.2305324e+16
1.25937968e+16
1.28834384e+16
1.31743126e+16
1.34664768e+16
1.37599809e+16
1.40548669e+16
1.43511675e+16
1.46489056e+16
1.49480931e+16
1.52487301e+16
1.55508041e+16
1.58542888e+16
1.61591434e+16
1.64653111e+16
1.67727495e+16
1.70831294e+16
1.73960314e+16
1.77110658e+16
1.80278638e+16
1.83460718e+16
1.86653457e+16
1.89853468e+16
1.93057381e+16
1.96261817e+16
1.99463364e+16
2.02658555e+16
2.05843855e+16
2.09015645e+16
2.12170217e+16
2.1530376e+16
2.18412358e+16
2.21491982e+16
2.24538491e+16
2.27547627e+16
2.30515012e+16
2.33436156e+16
2.3630645e+16
2.3912117e+16
2.41875486e+16
2.44564458e+16
2.47183047e+16
2.4972612e+16
2.52188459e+16
2.54564777e+16
2.56849728e+16
2.59037929e+16
2.61123984e+16
2.63102516e+16
2.64968201e+16
2.66715813e+16
2.68340278e+16
2.69836731e+16
2.71200579e+16
2.72427563e+16
2.73513811e+16
2.74455875e+16
2.75250732e+16
2.75895731e+16
2.76388518e+16
2.76726788e+16
2.76908398e+16
1.66972833e+15
1.9883162e+15
2.31000786e+15
2.63453924e+15
2.96099486e+15
3.28856099e+15
3.61656956e+15
3.94449833e+15
4.27195192e+15
4.59863851e+15
4.92434806e+15
5.24893409e+15
5.57229913e+15
5.89438351e+15
6.21515679e+15
6.53461136e+15
6.85275769e+15
7.16962078e+15
7.48523763e+15
7.7996553e+15
8.1129296e+15
8.42512408e+15
8.7363093e+15
9.04656237e+15
9.35596647e+15
9.6646106e+15
9.97258927e+15
1.02800022e+16
1.05869542e+16
1.08935546e+16
1.1199917e+16
1.15061592e+16
1.18124022e+16
1.21187699e+16
1.24253889e+16
1.27323871e+16
1.30398937e+16
1.3348038e+16
1.36569486e+16
1.39667527e+16
1.42775747e+16
1.45895358e+16
1.49027523e+16
1.52173347e+16
1.55333864e+16
1.58510029e+16
1.61702697e+16
1.64912618e+16
1.68140418e+16
1.71386588e+16
1.74651466e+16
1.77935225e+16
1.81237855e+16
1.84556297e+16
1.87912119e+16
1.91301865e+16
1.94722194e+16
1.9816983e+16
2.0164151e+16
2.05133954e+16
2.08643826e+16
2.1216771e+16
2.15702087e+16
2.19243313e+16
2.22787605e+16
2.26331023e+16
2.29869463e+16
2.33398642e+16
2.36914096e+16
2.40411165e+16
2.43884998e+16
2.47330541e+16
2.5074254e+16
2.54115537e+16
2.57443873e+16
2.60721689e+16
2.6394293e+16
2.67101349e+16
2.70190518e+16
2.73203837e+16
2.76134547e+16
2.78975752e+16
2.81720437e+16
2.84361506e+16
2.86891814e+16
2.89304218e+16
2.91591634e+16
2.93747112e+16
2.95763918e+16
2.97635636e+16
2.9935628e+16
3.00920414e+16
3.02323272e+16
3.03560872e+16
3.04630084e+16
3.05528656e+16
3.06255135e+16
3.06808711e+16
3.07188817e+16
3.07395078e+16
1.85459956e+15
2.21041789e+15
2.56963675e+15
2.93168726e+15
3.29581108e+15
3.66124498e+15
4.02730273e+15
4.39340347e+15
4.75907179e+15
5.12392675e+15
5.48766762e+15
5.85006019e+15
6.21092461e+15
6.5701255e+15
6.92756382e+15
7.28317057e+15
7.63690188e+15
7.98873518e+15
8.33866634e+15
8.6867074e+15
9.03288491e+15
9.37723872e+15
9.71982091e+15
1.00606951e+16
1.0399936e+16
1.07376285e+16
1.10738678e+16
1.14087587e+16
1.17424154e+16
1.20749607e+16
1.24065262e+16
1.27372513e+16
1.3067283e+16
1.33967751e+16
1.37258878e+16
1.40547867e+16
1.43836419e+16
1.47126278e+16
1.50419212e+16
1.53717008e+16
1.57021461e+16
1.6033436e+16
1.63657475e+16
1.66992542e+16
1.70341253e+16
1.73705236e+16
1.77086041e+16
1.80485122e+16
1.83903821e+16
1.87343346e+16
1.90804755e+16
1.94288934e+16
1.97796573e+16
2.01325167e+16
2.04894681e+16
2.08506056e+16
2.12156633e+16
2.15843714e+16
2.1956452e+16
2.23316159e+16
2.27095593e+16
2.30899617e+16
2.34724831e+16
2.38567619e+16
2.42424135e+16
2.46290283e+16
2.50161701e+16
2.54033755e+16
2.57901521e+16
2.61759779e+16
2.65603007e+16
2.69425371e+16
2.73220722e+16
2.76982597e+16
2.80704211e+16
2.84378466e+16
2.87997947e+16
2.91554936e+16
2.95041417e+16
2.98449094e+16
3.01769411e+16
3.04993576e+16
3.08112602e+16
3.11117351e+16
3.13998596e+16
3.16747092e+16
3.19353672e+16
3.21809365e+16
3.24105526e+16
3.26234004e+16
3.28187322e+16
3.29958878e+16
3.31543151e+16
3.32935894e+16
3.34134284e+16
3.35136987e+16
3.35944081e+16
3.36556832e+16
3.36977117e+16
3.37207132e+16
2.04079564e+15
2.43597705e+15
2.83401844e+15
3.23472678e+15
3.63756207e+15
4.04186951e+15
4.44699355e+15
4.85233093e+15
5.2573497e+15
5.66159192e+15
6.06466925e+15
6.46625589e+15
6.86608094e+15
7.26392135e+15
7.65959557e+15
8.05295831e+15
8.4438961e+15
8.83232368e+15
9.21818108e+15
9.60143128e+15
9.98205827e+15
1.03600656e+16
1.07354751e+16
1.1108326e+16
1.14786738e+16
1.18465901e+16
1.22121616e+16
1.25754895e+16
1.29366893e+16
1.32958902e+16
1.36532343e+16
1.40088762e+16
1.43629826e+16
1.47157314e+16
1.50673108e+16
1.54179191e+16
1.57677631e+16
1.61170577e+16
1.64660246e+16
1.68148911e+16
1.7163889e+16
1.75132533e+16
1.78632206e+16
1.82140275e+16
1.85659093e+16
1.89190977e+16
1.92738196e+16
1.96302942e+16
1.99887319e+16
2.03493312e+16
2.07122769e+16
2.1077737e+16
2.14458602e+16
2.18167729e+16
2.2191662e+16
2.25714229e+16
2.29558691e+16
2.33448025e+16
2.37380102e+16
2.41352603e+16
2.45362993e+16
2.49408492e+16
2.53486043e+16
2.57592294e+16
2.61723568e+16
2.65875848e+16
2.70044752e+16
2.74225518e+16
2.78412987e+16
2.8260159e+16
2.8678533e+16
2.90957775e+16
2.9511205e+16
2.99240822e+16
3.03336305e+16
3.07390248e+16
3.11393943e+16
3.15338228e+16
3.19213497e+16
3.23009713e+16
3.26716441e+16
3.30322871e+16
3.33817875e+16
3.37190062e+16
3.4042786e+16
3.43519625e+16
3.46453762e+16
3.49218897e+16
3.51804065e+16
3.54198949e+16
3.56394151e+16
3.58381488e+16
3.60154312e+16
3.6170782e+16
3.63039314e+16
3.64148358e+16
3.65036737e+16
3.65708198e+16
3.66167698e+16
3.66420809e+16
2.22894864e+15
2.66504037e+15
3.10335929e+15
3.54408937e+15
3.9869329e+15
4.4313748e+15
4.87682034e+15
5.32266837e+15
5.76834756e+15
6.21333293e+15
6.6571521e+15
7.09938624e+15
7.53966813e+15
7.97767918e+15
8.41314579e+15
8.84583586e+15
9.27555547e+15
9.70214575e+15
1.01254803e+16
1.05454629e+16
1.09620251e+16
1.13751252e+16
1.1784746e+16
1.21908943e+16
1.25935989e+16
1.29929106e+16
1.33889007e+16
1.37816606e+16
1.41713008e+16
1.45579505e+16
1.49417566e+16
1.53228834e+16
1.57015116e+16
1.60778377e+16
1.64520733e+16
1.68244438e+16
1.71951881e+16
1.75645571e+16
1.79328128e+16
1.83002272e+16
1.86670806e+16
1.90336607e+16
1.94002608e+16
1.97671782e+16
2.01347123e+16
2.05031627e+16
2.08728275e+16
2.12440004e+16
2.16169691e+16
2.19920119e+16
2.23693956e+16
2.27493724e+16
2.31321763e+16
2.35180198e+16
2.39079053e+16
2.43032145e+16
2.4703849e+16
2.51096939e+16
2.55206141e+16
2.59364507e+16
2.63570171e+16
2.67820958e+16
2.7211435e+16
2.76447459e+16
2.80816994e+16
2.85219232e+16
2.89649994e+16
2.94104617e+16
2.98577932e+16
3.03064238e+16
3.07557287e+16
3.12050257e+16
3.16535742e+16
3.21005732e+16
3.25451604e+16
3.2986411e+16
3.34233376e+16
3.38548898e+16
3.42799551e+16
3.46973602e+16
3.51058737e+16
3.55042093e+16
3.58910318e+16
3.62649641e+16
3.66245969e+16
3.69685024e+16
3.72952503e+16
3.76034291e+16
3.78916719e+16
3.81586881e+16
3.84032996e+16
3.86244834e+16
3.88214163e+16
3.89935214e+16
3.91405093e+16
3.92624077e+16
3.93595676e+16
3.94326374e+16
3.94824745e+16
3.95100527e+16
2.41902613e+15
2.89759413e+15
3.37775424e+15
3.86004396e+15
4.34440458e+15
4.83046733e+15
5.31770839e+15
5.80553855e+15
6.29335461e+15
6.78056915e+15
7.26662731e+15
7.75101622e+15
8.23326929e+15
8.71296784e+15
9.18974072e+15
9.66326298e+15
1.01332539e+16
1.05994748e+16
1.10617266e+16
1.15198478e+16
1.19737124e+16
1.24232275e+16
1.28683322e+16
1.33089956e+16
1.37452155e+16
1.41770172e+16
1.46044523e+16
1.50275976e+16
1.54465545e+16
1.58614478e+16
1.62724247e+16
1.66796547e+16
1.7083328e+16
1.74836552e+16
1.78808662e+16
1.82752092e+16
1.86669501e+16
1.90563711e+16
1.944377e+16
1.98294585e+16
2.02137611e+16
2.05970139e+16
2.09795626e+16
2.13617611e+16
2.17439698e+16
2.2126553e+16
2.25098773e+16
2.2894309e+16
2.32802115e+16
2.36679426e+16
2.40578513e+16
2.44502749e+16
2.48455349e+16
2.52439332e+16
2.5646272e+16
2.60544415e+16
2.64684383e+16
2.68882395e+16
2.73137985e+16
2.77450409e+16
2.81818604e+16
2.86241148e+16
2.90716224e+16
2.9524158e+16
2.99814489e+16
3.04431718e+16
3.09089489e+16
3.13783445e+16
3.18508618e+16
3.23259394e+16
3.28029485e+16
3.32811898e+16
3.37598908e+16
3.42382033e+16
3.47152014e+16
3.51898792e+16
3.56611497e+16
3.61278441e+16
3.6588711e+16
3.7042418e+16
3.74875533e+16
3.79226293e+16
3.83460882e+16
3.87563104e+16
3.9151625e+16
3.95303257e+16
3.98906902e+16
4.02310061e+16
4.05496026e+16
4.08448906e+16
4.11154097e+16
4.13598831e+16
4.15772786e+16
4.17668733e+16
4.19283143e+16
4.20616684e+16
4.21674441e+16
4.22465744e+16
4.230032e+16
4.23301452e+16
2.61098722e+15
3.13358414e+15
3.65720984e+15
4.18271586e+15
4.71025801e+15
5.23959921e+15
5.77027808e+15
6.30171269e+15
6.83326541e+15
7.36428464e+15
7.89413174e+15
8.42219838e+15
8.94791709e+15
9.47076746e+15
9.99027904e+15
1.05060322e+16
1.10176577e+16
1.15248353e+16
1.20272916e+16
1.25247984e+16
1.301717e+16
1.35042615e+16
1.39859663e+16
1.44622143e+16
1.49329702e+16
1.53982322e+16
1.58580298e+16
1.63124233e+16
1.6761502e+16
1.72053836e+16
1.76442127e+16
1.80781604e+16
1.85074228e+16
1.89322207e+16
1.93527982e+16
1.9769422e+16
2.01823804e+16
2.05919823e+16
2.09985561e+16
2.14024485e+16
2.18040231e+16
2.22036592e+16
2.26017503e+16
2.29987021e+16
2.33949308e+16
2.37908613e+16
2.41869246e+16
2.45835555e+16
2.49811902e+16
2.5380263e+16
2.57812031e+16
2.61844314e+16
2.65903564e+16
2.69993698e+16
2.74120534e+16
2.78308245e+16
2.82557789e+16
2.86869913e+16
2.9124511e+16
2.95683569e+16
3.00185131e+16
3.04749247e+16
3.09374927e+16
3.14060695e+16
3.18804548e+16
3.23603905e+16
3.28455567e+16
3.3335567e+16
3.3829964e+16
3.43282153e+16
3.48297089e+16
3.53337496e+16
3.58395545e+16
3.63462497e+16
3.68528669e+16
3.73583398e+16
3.7861502e+16
3.83610846e+16
3.88557153e+16
3.93439177e+16
3.98241129e+16
4.0294622e+16
4.07536719e+16
4.11994029e+16
4.16298807e+16
4.20431135e+16
4.2437074e+16
4.2809729e+16
4.31590774e+16
4.34831977e+16
4.37803059e+16
4.40488241e+16
4.42874591e+16
4.44952874e+16
4.46718404e+16
4.4817179e+16
4.49319404e+16
4.50173372e+16
4.50750619e+16
4.51071358e+16
2.80478551e+15
3.37292701e+15
3.94166258e+15
4.51210699e+15
5.0845898e+15
5.65897368e+15
6.23483593e+15
6.81158487e+15
7.38853696e+15
7.9649692e+15
8.54015506e+15
9.11338898e+15
9.68400245e+15
1.02513743e+16
1.08149364e+16
1.13741768e+16
1.19286401e+16
1.2477927e+16
1.30216925e+16
1.35596439e+16
1.40915385e+16
1.46171807e+16
1.513642e+16
1.56491485e+16
1.61552989e+16
1.6654842e+16
1.71477857e+16
1.76341729e+16
1.811408e+16
1.8587616e+16
1.9054921e+16
1.95161652e+16
1.9971548e+16
2.04212969e+16
2.08656666e+16
2.13049383e+16
2.17394185e+16
2.2169438e+16
2.25953511e+16
2.30175342e+16
2.34363849e+16
2.38523204e+16
2.42657763e+16
2.46772045e+16
2.50870719e+16
2.54958584e+16
2.59040542e+16
2.63121579e+16
2.67206735e+16
2.71301075e+16
2.75409656e+16
2.7953749e+16
2.83689504e+16
2.87870494e+16
2.92083857e+16
2.96359163e+16
3.0069838e+16
3.05103267e+16
3.09575317e+16
3.14115715e+16
3.18725279e+16
3.23404415e+16
3.28153061e+16
3.32970633e+16
3.37855973e+16
3.42807294e+16
3.47822124e+16
3.52897254e+16
3.58028679e+16
3.63211547e+16
3.68440101e+16
3.73707628e+16
3.79006404e+16
3.84327646e+16
3.89661459e+16
3.94996794e+16
4.00321406e+16
4.05621818e+16
4.10883294e+16
4.16089821e+16
4.21224112e+16
4.2626762e+16
4.31200579e+16
4.36002087e+16
4.40650218e+16
4.451222e+16
4.49394654e+16
4.53443924e+16
4.57246503e+16
4.60779579e+16
4.64021721e+16
4.66953705e+16
4.69559476e+16
4.71827232e+16
4.73750548e+16
4.75329441e+16
4.76571147e+16
4.77490393e+16
4.78108564e+16
4.78452011e+16
3.0003709e+15
3.61551804e+15
4.23099334e+15
4.84811535e+15
5.46733398e+15
6.08856666e+15
6.7113938e+15
7.33518773e+15
7.95920084e+15
8.58262744e+15
9.20464718e+15
9.82445548e+15
1.04412841e+16
1.10544144e+16
1.16631858e+16
1.22669994e+16
1.28653201e+16
1.34576758e+16
1.40436562e+16
1.46229102e+16
1.51951431e+16
1.5760114e+16
1.63176328e+16
1.68675573e+16
1.74097909e+16
1.79442798e+16
1.84710115e+16
1.89900124e+16
1.95013464e+16
2.00051132e+16
2.05014472e+16
2.09905162e+16
2.14725204e+16
2.19476915e+16
2.24162916e+16
2.28786124e+16
2.33349746e+16
2.37857264e+16
2.42312431e+16
2.46719259e+16
2.51082008e+16
2.55405174e+16
2.59693474e+16
2.63951836e+16
2.68185373e+16
2.72399375e+16
2.76599279e+16
2.80790648e+16
2.84979147e+16
2.89170509e+16
2.93370504e+16
2.97584902e+16
3.0181943e+16
3.06079727e+16
3.10366555e+16
3.14714947e+16
3.1912788e+16
3.23608131e+16
3.2815822e+16
3.32780355e+16
3.37476381e+16
3.42247717e+16
3.47095299e+16
3.52019518e+16
3.57020161e+16
3.62096342e+16
3.67246443e+16
3.72468045e+16
3.77757863e+16
3.83111676e+16
3.88524265e+16
3.93989338e+16
3.99499472e+16
4.05046038e+16
4.10619143e+16
4.16207564e+16
4.21798694e+16
4.27378484e+16
4.32931403e+16
4.38440403e+16
4.43886898e+16
4.49250768e+16
4.54510386e+16
4.59642683e+16
4.6462326e+16
4.69426557e+16
4.74026109e+16
4.78394887e+16
4.82505772e+16
4.86332158e+16
4.89848735e+16
4.9303245e+16
4.95863651e+16
4.98327414e+16
5.00414975e+16
5.02125147e+16
5.03465515e+16
5.0445307e+16
5.0511366e+16
5.0548023e+16
3.19769076e+15
3.86123689e+15
4.52503917e+15
5.19055332e+15
5.85828662e+15
6.52815697e+15
7.19970445e+15
7.87223295e+15
8.54490859e+15
9.21682935e+15
9.88707447e+15
1.05547393e+16
1.12189586e+16
1.18789224e+16
1.25338851e+16
1.318317e+16
1.38261717e+16
1.44623549e+16
1.50912532e+16
1.57124657e+16
1.63256543e+16
1.69305397e+16
1.75268987e+16
1.81145604e+16
1.86934034e+16
1.92633529e+16
1.98243788e+16
2.03764928e+16
2.09197472e+16
2.14542329e+16
2.19800778e+16
2.24974463e+16
2.30065375e+16
2.35075847e+16
2.40008544e+16
2.44866454e+16
2.49652885e+16
2.54371449e+16
2.59026063e+16
2.63620934e+16
2.68160552e+16
2.72649681e+16
2.77093344e+16
2.81496811e+16
2.85865584e+16
2.90205378e+16
2.94522104e+16
2.98821841e+16
3.03110817e+16
3.07395373e+16
3.11681935e+16
3.15976974e+16
3.20286966e+16
3.24618345e+16
3.28969045e+16
3.33379571e+16
3.37853889e+16
3.42395786e+16
3.47008804e+16
3.51696191e+16
3.56460837e+16
3.61305207e+16
3.66231283e+16
3.71240488e+16
3.76333623e+16
3.8151079e+16
3.86771321e+16
3.92113697e+16
3.97535476e+16
4.03033209e+16
4.08602362e+16
4.14237232e+16
4.19930866e+16
4.25674982e+16
4.31459883e+16
4.37274379e+16
4.43105712e+16
4.48939483e+16
4.54759588e+16
4.60548163e+16
4.66285545e+16
4.71950254e+16
4.77518998e+16
4.82966724e+16
4.88266713e+16
4.93390743e+16
4.98309335e+16
5.02992114e+16
5.07408302e+16
5.11527377e+16
5.15319936e+16
5.18758775e+16
5.21820225e+16
5.24485717e+16
5.26743538e+16
5.28590663e+16
5.30034417e+16
5.31093612e+16
5.31798412e+16
5.32188693e+16
3.39669077e+15
4.10995189e+15
4.8236031e+15
5.53916437e+15
6.25713067e+15
6.97736008e+15
7.69930433e+15
8.42216342e+15
9.14499315e+15
9.86678108e+15
1.05865e+16
1.13031452e+16
1.20157597e+16
1.27234501e+16
1.3425396e+16
1.41208548e+16
1.48091626e+16
1.54897333e+16
1.61620559e+16
1.68256907e+16
1.74802661e+16
1.81254736e+16
1.87610647e+16
1.93868464e+16
2.00026782e+16
2.0608469e+16
2.12041742e+16
2.17897936e+16
2.2365369e+16
2.29309831e+16
2.34867575e+16
2.40328516e+16
2.4569462e+16
2.50968214e+16
2.56151975e+16
2.6124893e+16
2.66262446e+16
2.71196225e+16
2.76054298e+16
2.80841018e+16
2.85561052e+16
2.90219375e+16
2.94821256e+16
2.99372251e+16
3.03878185e+16
3.0834514e+16
3.12779434e+16
3.171876e+16
3.21576364e+16
3.25952613e+16
3.30323367e+16
3.34695739e+16
3.39076895e+16
3.43474009e+16
3.47882023e+16
3.52346874e+16
3.56873484e+16
3.61466623e+16
3.66130842e+16
3.70870418e+16
3.75689288e+16
3.80590977e+16
3.85578533e+16
3.9065445e+16
3.95820587e+16
4.01078094e+16
4.06427324e+16
4.11867746e+16
4.17397859e+16
4.230151e+16
4.28715746e+16
4.34494825e+16
4.40346011e+16
4.46261533e+16
4.52232071e+16
4.58246662e+16
4.642926e+16
4.70355348e+16
4.76418447e+16
4.82463444e+16
4.88469824e+16
4.94414972e+16
5.00274152e+16
5.06020536e+16
5.11625276e+16
5.17057649e+16
5.22285295e+16
5.27274574e+16
5.31991071e+16
5.36400294e+16
5.40468604e+16
5.44164403e+16
5.47459642e+16
5.50331628e+16
5.52765119e+16
5.54754594e+16
5.56306464e+16
5.57440814e+16
5.58191854e+16
5.58606594e+16
3.59731543e+15
4.36152338e+15
5.12646229e+15
5.89363828e+15
6.6634598e+15
7.43566186e+15
8.20955811e+15
8.98420862e+15
9.75853526e+15
1.05314021e+16
1.13016709e+16
1.20682394e+16
1.28300655e+16
1.3586183e+16
1.43357096e+16
1.50778501e+16
1.58118968e+16
1.65372263e+16
1.72532965e+16
1.79596417e+16
1.86558676e+16
1.93416469e+16
2.00167143e+16
2.06808623e+16
2.13339374e+16
2.1975837e+16
2.26065058e+16
2.3225934e+16
2.3834155e+16
2.44312435e+16
2.50173145e+16
2.55925219e+16
2.61570577e+16
2.67111516e+16
2.72550698e+16
2.77891152e+16
2.83136269e+16
2.88289795e+16
2.93355828e+16
2.98338819e+16
3.03243558e+16
3.08075176e+16
3.12839133e+16
3.17541208e+16
3.22187492e+16
3.26784369e+16
3.31338503e+16
3.35856817e+16
3.40346473e+16
3.44814839e+16
3.49269467e+16
3.5371805e+16
3.58168383e+16
3.6262832e+16
3.67089679e+16
3.71603752e+16
3.76176377e+16
3.80813266e+16
3.85519952e+16
3.90301717e+16
3.95163532e+16
4.00109977e+16
4.05145172e+16
4.10272693e+16
4.15495487e+16
4.20815786e+16
4.26235016e+16
4.31753696e+16
4.37371344e+16
4.4308637e+16
4.48895969e+16
4.54796015e+16
4.60780944e+16
4.66843643e+16
4.72975331e+16
4.79165444e+16
4.8540152e+16
4.9166908e+16
4.97951524e+16
5.04230028e+16
5.10483452e+16
5.16688277e+16
5.22818555e+16
5.28845906e+16
5.3473957e+16
5.40466521e+16
5.45991688e+16
5.51278297e+16
5.56288376e+16
5.60983477e+16
5.65325648e+16
5.69278726e+16
5.7280999e+16
5.75892203e+16
5.78506049e+16
5.80642868e+16
5.82307464e+16
5.83520572e+16
5.8432006e+16
5.84760145e+16
3.79950846e+15
4.61580632e+15
5.43337507e+15
6.25362459e+15
7.07680021e+15
7.90245e+15
8.72970055e+15
9.55743746e+15
1.03844271e+16
1.12093994e+16
1.20311032e+16
1.28483429e+16
1.36600011e+16
1.44650514e+16
1.5262564e+16
1.60517071e+16
1.68317445e+16
1.76020311e+16
1.83620081e+16
1.91111968e+16
1.98491925e+16
2.05756593e+16
2.12903242e+16
2.19929729e+16
2.2683445e+16
2.3361631e+16
2.40274688e+16
2.46809415e+16
2.53220752e+16
2.59509373e+16
2.65676357e+16
2.71723175e+16
2.77651683e+16
2.83464122e+16
2.89163111e+16
2.94751646e+16
3.00233099e+16
3.05611219e+16
3.10890128e+16
3.16074321e+16
3.21168663e+16
3.26178385e+16
3.31109082e+16
3.35966701e+16
3.40757537e+16
3.45488219e+16
3.50165695e+16
3.54797218e+16
3.5939032e+16
3.63952793e+16
3.68492655e+16
3.73018117e+16
3.77537547e+16
3.82059419e+16
3.86590701e+16
3.9115e+16
3.95763497e+16
4.00437839e+16
4.05179527e+16
4.09994845e+16
4.14889791e+16
4.19870004e+16
4.2494068e+16
4.30106486e+16
4.35371475e+16
4.40738987e+16
4.46211551e+16
4.51790778e+16
4.57477256e+16
4.63270433e+16
4.69168499e+16
4.75168263e+16
4.81265027e+16
4.87452454e+16
4.93722436e+16
5.0006496e+16
5.06467966e+16
5.12917216e+16
5.1939616e+16
5.25885808e+16
5.32364613e+16
5.38808374e+16
5.4519016e+16
5.51480277e+16
5.57646278e+16
5.63653054e+16
5.69463022e+16
5.75036444e+16
5.8033192e+16
5.85307111e+16
5.89919751e+16
5.94129003e+16
5.97897251e+16
6.01192364e+16
6.03990456e+16
6.06279108e+16
6.08060818e+16
6.09356292e+16
6.10206563e+16
6.10672997e+16
4.00321314e+15
4.87265247e+15
5.74408683e+15
6.61874428e+15
7.49662985e+15
8.37704215e+15
9.25887422e+15
1.01408059e+16
1.10214299e+16
1.18993345e+16
1.27731569e+16
1.36416157e+16
1.45035299e+16
1.53578277e+16
1.62035484e+16
1.70398403e+16
1.78659555e+16
1.86812435e+16
1.94851434e+16
2.02771772e+16
2.10569418e+16
2.1824103e+16
2.25783891e+16
2.3319586e+16
2.40475326e+16
2.47621167e+16
2.54632726e+16
2.61509782e+16
2.68252534e+16
2.74861585e+16
2.81337934e+16
2.87682967e+16
2.93898458e+16
2.99986563e+16
3.05949826e+16
3.11791172e+16
3.17513919e+16
3.23121773e+16
3.28618832e+16
3.3400959e+16
3.39298934e+16
3.44492147e+16
3.495949e+16
3.54613257e+16
3.5955366e+16
3.64422923e+16
3.69228223e+16
3.7397708e+16
3.78677343e+16
3.83337162e+16
3.87964965e+16
3.92569423e+16
3.97159412e+16
4.01743972e+16
4.06332249e+16
4.10936869e+16
4.15590542e+16
4.20300737e+16
4.25074818e+16
4.2991998e+16
4.34843172e+16
4.39851026e+16
4.44949767e+16
4.50145127e+16
4.55442247e+16
4.60845579e+16
4.66358775e+16
4.71984573e+16
4.7772468e+16
4.83579646e+16
4.89548733e+16
4.95629777e+16
5.0181905e+16
5.08111113e+16
5.1449866e+16
5.20972374e+16
5.27520759e+16
5.34129989e+16
5.4078375e+16
5.47463085e+16
5.5414625e+16
5.60808586e+16
5.6742241e+16
5.73956946e+16
5.80378299e+16
5.86649511e+16
5.92730708e+16
5.98579388e+16
6.04150889e+16
6.09399102e+16
6.1427749e+16
6.18740507e+16
6.22745491e+16
6.26255126e+16
6.29240527e+16
6.31684933e+16
6.33587847e+16
6.34969224e+16
6.35872689e+16
6.36366579e+16
4.20837245e+15
5.13191208e+15
6.05833493e+15
6.98859969e+15
7.9223948e+15
8.8587098e+15
9.79616166e+15
1.07331975e+16
1.16682225e+16
1.25996804e+16
1.35261009e+16
1.44461276e+16
1.53585305e+16
1.62622089e+16
1.7156189e+16
1.80396172e+16
1.89117513e+16
1.97719514e+16
2.061967e+16
2.14544425e+16
2.22758793e+16
2.30836577e+16
2.38775157e+16
2.46572459e+16
2.54226914e+16
2.61737414e+16
2.6910329e+16
2.76324283e+16
2.83400535e+16
2.90332569e+16
2.97121295e+16
3.03767995e+16
3.10274334e+16
3.16642356e+16
3.22874493e+16
3.28973566e+16
3.34942792e+16
3.40785795e+16
3.46506603e+16
3.52109661e+16
3.5759983e+16
3.62982391e+16
3.68263046e+16
3.73447917e+16
3.78543542e+16
3.83556867e+16
3.88495241e+16
3.93366398e+16
3.98178444e+16
4.02939834e+16
4.07659349e+16
4.12346062e+16
4.17009304e+16
4.21658619e+16
4.26303718e+16
4.30954243e+16
4.35647752e+16
4.40392517e+16
4.45196751e+16
4.5006854e+16
4.55015763e+16
4.60046023e+16
4.65166551e+16
4.70384116e+16
4.75704931e+16
4.81134536e+16
4.86677697e+16
4.92338276e+16
4.98119107e+16
5.04021863e+16
5.10046913e+16
5.16193173e+16
5.2245795e+16
5.28836785e+16
5.35323278e+16
5.41908923e+16
5.48582926e+16
5.55332024e+16
5.62140306e+16
5.68989033e+16
5.75856464e+16
5.82717693e+16
5.89544511e+16
5.96305293e+16
6.02964938e+16
6.09484879e+16
6.15823188e+16
6.21934822e+16
6.27772056e+16
6.33285165e+16
6.38423446e+16
6.43136658e+16
6.47377008e+16
6.5110178e+16
6.5427672e+16
6.56880195e+16
6.58908044e+16
6.60378736e+16
6.61337838e+16
6.61860372e+16
4.41492925e+15
5.39343518e+15
6.3758527e+15
7.36278266e+15
8.35352286e+15
9.34669817e+15
1.0340612e+16
1.13334571e+16
1.23234426e+16
1.33088683e+16
1.42881657e+16
1.5259917e+16
1.62228595e+16
1.71758826e+16
1.8118018e+16
1.90484289e+16
1.99663966e+16
2.08713077e+16
2.17626423e+16
2.26399624e+16
2.35029022e+16
2.435116e+16
2.51844903e+16
2.60026984e+16
2.68056356e+16
2.75931956e+16
2.83653116e+16
2.91219549e+16
2.98631333e+16
3.05888904e+16
3.12993061e+16
3.19944963e+16
3.26746133e+16
3.33398473e+16
3.39904266e+16
3.46266187e+16
3.52487318e+16
3.5857115e+16
3.645216e+16
3.70343017e+16
3.76040188e+16
3.81618346e+16
3.87083171e+16
3.92440796e+16
3.97697803e+16
4.0286122e+16
4.07938515e+16
4.12937585e+16
4.1786674e+16
4.2273469e+16
4.27550512e+16
4.32323631e+16
4.37063778e+16
4.41780953e+16
4.46485373e+16
4.51183595e+16
4.55917951e+16
4.60697466e+16
4.65531153e+16
4.70427944e+16
4.75396614e+16
4.80445699e+16
4.8558341e+16
4.90817535e+16
4.96155335e+16
5.01603435e+16
5.07167704e+16
5.12853128e+16
5.18663678e+16
5.24602166e+16
5.30670091e+16
5.36867485e+16
5.4319274e+16
5.49642436e+16
5.56211159e+16
5.62891304e+16
5.69672888e+16
5.76543338e+16
5.83487292e+16
5.90486391e+16
5.97519075e+16
6.04560388e+16
6.11581806e+16
6.18551082e+16
6.25432144e+16
6.32185059e+16
6.38766089e+16
6.45127887e+16
6.51219884e+16
6.56988933e+16
6.62380302e+16
6.67339131e+16
6.71812467e+16
6.75752047e+16
6.79117942e+16
6.81883179e+16
6.84039296e+16
6.8560254e+16
6.86619721e+16
6.87172146e+16
4.62282629e+15
5.65707265e+15
6.69637273e+15
7.74088123e+15
8.78943449e+15
9.84024222e+15
1.08912626e+16
1.19404181e+16
1.29857183e+16
1.40253256e+16
1.50575857e+16
1.60810359e+16
1.70944004e+16
1.80965782e+16
1.90866268e+16
2.00637448e+16
2.10272541e+16
2.19765838e+16
2.2911255e+16
2.38308681e+16
2.4735091e+16
2.56236503e+16
2.64963235e+16
2.73529331e+16
2.81933416e+16
2.90174488e+16
2.98251892e+16
3.06165306e+16
3.13914734e+16
3.21500509e+16
3.28923295e+16
3.36184096e+16
3.43284266e+16
3.50225526e+16
3.57009972e+16
3.63640096e+16
3.70118795e+16
3.76449394e+16
3.82635648e+16
3.88681767e+16
3.94592418e+16
4.00372739e+16
4.06028342e+16
4.11565324e+16
4.16990264e+16
4.22310224e+16
4.27532743e+16
4.32665832e+16
4.37717959e+16
4.42698035e+16
4.4761539e+16
4.52479747e+16
4.57301192e+16
4.62090127e+16
4.66857232e+16
4.71605905e+16
4.76383176e+16