/*--------------------------------*- C++ -*----------------------------------*\
| =========                 |                                                 |
| \\      /  F ield         | OpenFOAM Extend Project: Open source CFD        |
|  \\    /   O peration     | Version:  1.6-ext                               |
|   \\  /    A nd           | Web:      www.extend-project.de                 |
|    \\/     M anipulation  |                                                 |
\*---------------------------------------------------------------------------*/
FoamFile
{
    version     2.0;
    format      ascii;
    class       volScalarField;
    location    "4000";
    object      prec2;
}
// * * * * * * * * * * * * * * * * * * * * * * * * * * * * * * * * * * * * * //

dimensions      [0 -3 0 0 0 0 0];

internalField   nonuniform List<scalar> 
40000
(
4.76350616e+15
5.67093352e+15
6.56874977e+15
7.47699969e+15
8.41055582e+15
9.39769079e+15
1.03504765e+16
1.13037156e+16
1.22571646e+16
1.32098527e+16
1.41605935e+16
1.51081629e+16
1.60514003e+16
1.6989263e+16
1.79208506e+16
1.88454114e+16
1.97623392e+16
2.06711653e+16
2.15715487e+16
2.2463266e+16
2.33462022e+16
2.42203423e+16
2.50857637e+16
2.59426305e+16
2.67911876e+16
2.76317567e+16
2.84647319e+16
2.92905762e+16
3.01098182e+16
3.0923049e+16
3.17309189e+16
3.25341344e+16
3.33334547e+16
3.41296884e+16
3.49236892e+16
3.57163521e+16
3.65086091e+16
3.73014235e+16
3.80957852e+16
3.88927046e+16
3.9693206e+16
4.04983208e+16
4.13090801e+16
4.21265065e+16
4.29516053e+16
4.37853558e+16
4.46287007e+16
4.54825366e+16
4.63477025e+16
4.72249692e+16
4.8115027e+16
4.90184741e+16
4.99358037e+16
5.08715572e+16
5.18270844e+16
5.28008241e+16
5.37912931e+16
5.47970642e+16
5.58167477e+16
5.68489755e+16
5.78923875e+16
5.89456202e+16
6.00072967e+16
6.10760191e+16
6.21503618e+16
6.32288665e+16
6.43100384e+16
6.53923435e+16
6.64742081e+16
6.75540177e+16
6.86301185e+16
6.97008191e+16
7.07643929e+16
7.18190815e+16
7.28630985e+16
7.38946337e+16
7.49118569e+16
7.59129218e+16
7.68959698e+16
7.78591323e+16
7.88005321e+16
7.97182835e+16
8.06104905e+16
8.14752424e+16
8.23106071e+16
8.3114622e+16
8.38852806e+16
8.46205167e+16
8.53181845e+16
8.59760359e+16
8.65916937e+16
8.71626236e+16
8.76861042e+16
8.81591987e+16
8.85787312e+16
8.8941273e+16
8.92431466e+16
8.94804574e+16
8.96491663e+16
8.97452226e+16
5.63373935e+15
6.69407143e+15
7.76743197e+15
9.01650453e+15
1.02812117e+16
1.15886653e+16
1.29411378e+16
1.43292117e+16
1.57418333e+16
1.71684236e+16
1.85996451e+16
2.00275896e+16
2.14457106e+16
2.28486608e+16
2.42321088e+16
2.5592567e+16
2.69272417e+16
2.82339084e+16
2.95108109e+16
3.07565794e+16
3.19701668e+16
3.31507976e+16
3.42979283e+16
3.54112163e+16
3.64904963e+16
3.75357615e+16
3.85471491e+16
3.95249296e+16
4.04694982e+16
4.13813682e+16
4.22611665e+16
4.31096291e+16
4.39275988e+16
4.47160223e+16
4.54759488e+16
4.6208528e+16
4.69150086e+16
4.75967373e+16
4.82551573e+16
4.88918062e+16
4.95083153e+16
5.01064067e+16
5.06878916e+16
5.12546676e+16
5.18087153e+16
5.23520947e+16
5.28869411e+16
5.34154598e+16
5.39399199e+16
5.44626481e+16
5.49860196e+16
5.55124487e+16
5.60443752e+16
5.65942681e+16
5.71764303e+16
5.77908898e+16
5.84376819e+16
5.91168384e+16
5.98283769e+16
6.05722915e+16
6.13485424e+16
6.21570471e+16
6.29976706e+16
6.38702166e+16
6.47744184e+16
6.57099304e+16
6.66763191e+16
6.76730549e+16
6.8699504e+16
6.97549202e+16
7.08384373e+16
7.19490614e+16
7.30856639e+16
7.42469742e+16
7.54315726e+16
7.66378837e+16
7.78641687e+16
7.91085183e+16
8.03688442e+16
8.16428698e+16
8.29281195e+16
8.42219051e+16
8.55213106e+16
8.68231718e+16
8.81240516e+16
8.94202089e+16
9.07075595e+16
9.19816265e+16
9.3237478e+16
9.44696478e+16
9.56720353e+16
9.68377754e+16
9.79590705e+16
9.90269663e+16
1.00031045e+17
1.00958996e+17
1.01795971e+17
1.02523608e+17
1.03118286e+17
1.03548139e+17
6.48140978e+15
7.6893819e+15
9.15018253e+15
1.07228271e+16
1.24654713e+16
1.43606099e+16
1.63743078e+16
1.84709794e+16
2.06192128e+16
2.27932252e+16
2.49725713e+16
2.71413086e+16
2.92871013e+16
3.14004335e+16
3.34739693e+16
3.55020526e+16
3.7480322e+16
3.94054183e+16
4.12747636e+16
4.30863932e+16
4.48388297e+16
4.65309876e+16
4.81621014e+16
4.97316717e+16
5.12394239e+16
5.26852783e+16
5.40693265e+16
5.53918149e+16
5.66531319e+16
5.78537984e+16
5.89944615e+16
6.00758891e+16
6.10989676e+16
6.20646985e+16
6.2974198e+16
6.38286956e+16
6.46295342e+16
6.53781698e+16
6.60761721e+16
6.67252246e+16
6.73271251e+16
6.78837863e+16
6.8397236e+16
6.88696173e+16
6.93031887e+16
6.97003239e+16
7.00635106e+16
7.03953496e+16
7.06985529e+16
7.09759406e+16
7.12304363e+16
7.14650614e+16
7.16829241e+16
7.18945564e+16
7.21255839e+16
7.23773309e+16
7.26511613e+16
7.29484683e+16
7.32706662e+16
7.36191797e+16
7.39954347e+16
7.44008478e+16
7.48368164e+16
7.53047076e+16
7.58058481e+16
7.63415133e+16
7.69129167e+16
7.75211989e+16
7.81674176e+16
7.88525362e+16
7.95774147e+16
8.03427987e+16
8.11493105e+16
8.19974392e+16
8.2887532e+16
8.3819785e+16
8.47942345e+16
8.58107476e+16
8.6869013e+16
8.79685293e+16
8.9108593e+16
9.02882826e+16
9.15064388e+16
9.27616397e+16
9.40521679e+16
9.53759669e+16
9.67305847e+16
9.8113099e+16
9.95200176e+16
1.00947148e+17
1.02389423e+17
1.03840665e+17
1.05293262e+17
1.06737719e+17
1.08161998e+17
1.09550519e+17
1.10882547e+17
1.12129415e+17
1.13249048e+17
1.14174045e+17
7.35751301e+15
8.89745307e+15
1.07010321e+16
1.28301158e+16
1.52692014e+16
1.79506469e+16
2.08014481e+16
2.37588796e+16
2.67734563e+16
2.98075599e+16
3.28330505e+16
3.58290036e+16
3.87798724e+16
4.16740865e+16
4.45030123e+16
4.72601921e+16
4.99407892e+16
5.25411828e+16
5.50586741e+16
5.74912686e+16
5.98375187e+16
6.20964064e+16
6.4267257e+16
6.6349676e+16
6.83435017e+16
7.02487712e+16
7.20656943e+16
7.37946353e+16
7.54360993e+16
7.69907226e+16
7.84592657e+16
7.98426085e+16
8.11417477e+16
8.23577941e+16
8.34919724e+16
8.45456206e+16
8.55201902e+16
8.64172471e+16
8.72384726e+16
8.79856644e+16
8.86607386e+16
8.92657304e+16
8.98027964e+16
9.02742157e+16
9.06823917e+16
9.1029853e+16
9.13192547e+16
9.15533788e+16
9.17351341e+16
9.18675552e+16
9.19537999e+16
9.19971445e+16
9.20009747e+16
9.19705806e+16
9.19396859e+16
9.19103938e+16
9.1884884e+16
9.18654053e+16
9.18542677e+16
9.18538344e+16
9.18665128e+16
9.18947442e+16
9.19409941e+16
9.2007741e+16
9.20974654e+16
9.22126381e+16
9.23557089e+16
9.25290941e+16
9.27351656e+16
9.2976239e+16
9.32545631e+16
9.35723096e+16
9.39315638e+16
9.43343168e+16
9.47824589e+16
9.52777744e+16
9.58219386e+16
9.64165166e+16
9.70629634e+16
9.77626271e+16
9.85167519e+16
9.93264833e+16
1.00192873e+17
1.0111688e+17
1.02099375e+17
1.03141129e+17
1.04242798e+17
1.05404891e+17
1.06627711e+17
1.07911262e+17
1.09255106e+17
1.10658134e+17
1.12118229e+17
1.13631741e+17
1.15192654e+17
1.16791248e+17
1.18411763e+17
1.20028071e+17
1.21594473e+17
1.23023049e+17
8.2972953e+15
1.02453537e+16
1.26385553e+16
1.55356151e+16
1.88359803e+16
2.24190789e+16
2.61817598e+16
3.00446645e+16
3.39492308e+16
3.78529258e+16
4.17249804e+16
4.5543095e+16
4.92910329e+16
5.29569066e+16
5.65319653e+16
6.00097404e+16
6.338544e+16
6.66555171e+16
6.98173616e+16
7.28690768e+16
7.58093188e+16
7.86371776e+16
8.1352091e+16
8.39537814e+16
8.64422076e+16
8.88175312e+16
9.10800901e+16
9.32303795e+16
9.5269038e+16
9.71968373e+16
9.90146745e+16
1.00723567e+17
1.02324648e+17
1.03819166e+17
1.05208481e+17
1.06494065e+17
1.07677503e+17
1.08760491e+17
1.09744839e+17
1.10632472e+17
1.1142543e+17
1.12125872e+17
1.12736076e+17
1.13258442e+17
1.13695493e+17
1.14049878e+17
1.14324376e+17
1.1452189e+17
1.14645457e+17
1.14698239e+17
1.1468353e+17
1.14604743e+17
1.14465408e+17
1.1426509e+17
1.14043604e+17
1.13803526e+17
1.13547529e+17
1.13278381e+17
1.12998931e+17
1.12712111e+17
1.12420923e+17
1.12128434e+17
1.11837761e+17
1.11552066e+17
1.11274545e+17
1.11008409e+17
1.10756883e+17
1.10523183e+17
1.10310511e+17
1.1012204e+17
1.09960905e+17
1.09830187e+17
1.09732913e+17
1.09672042e+17
1.09650464e+17
1.09671e+17
1.09736403e+17
1.09849367e+17
1.10012542e+17
1.1022855e+17
1.10500016e+17
1.10829598e+17
1.11220029e+17
1.1167417e+17
1.12195065e+17
1.12786005e+17
1.13450596e+17
1.14192827e+17
1.15017131e+17
1.15928432e+17
1.16932154e+17
1.18034175e+17
1.19240676e+17
1.20557815e+17
1.21991086e+17
1.23544111e+17
1.25216277e+17
1.26997851e+17
1.2885852e+17
1.30715703e+17
9.34084623e+15
1.18379129e+16
1.50563958e+16
1.8882177e+16
2.31330556e+16
2.7654528e+16
3.23312231e+16
3.70805242e+16
4.18439707e+16
4.65801458e+16
5.12594904e+16
5.58606952e+16
6.03682293e+16
6.47706577e+16
6.90594855e+16
7.32283622e+16
7.72725251e+16
8.11884064e+16
8.49733525e+16
8.86254206e+16
9.21432299e+16
9.55258519e+16
9.87727276e+16
1.01883606e+17
1.04858496e+17
1.07697632e+17
1.10401443e+17
1.12970536e+17
1.15405674e+17
1.17707767e+17
1.19877858e+17
1.21917121e+17
1.23826849e+17
1.25608453e+17
1.2726346e+17
1.28793506e+17
1.30200338e+17
1.31485814e+17
1.326519e+17
1.33700674e+17
1.34634325e+17
1.35455152e+17
1.36165571e+17
1.36768114e+17
1.37265429e+17
1.37660288e+17
1.37955582e+17
1.38154327e+17
1.38259664e+17
1.3827486e+17
1.38203304e+17
1.38048506e+17
1.37814087e+17
1.37499153e+17
1.37138327e+17
1.36739522e+17
1.36305732e+17
1.35840047e+17
1.3534566e+17
1.34825849e+17
1.34283981e+17
1.33723499e+17
1.33147911e+17
1.32560785e+17
1.31965734e+17
1.31366405e+17
1.30766467e+17
1.30169595e+17
1.29579462e+17
1.2899972e+17
1.2843399e+17
1.27885854e+17
1.27358838e+17
1.26856412e+17
1.26381985e+17
1.25938903e+17
1.25530461e+17
1.25159915e+17
1.24830505e+17
1.2454549e+17
1.24308195e+17
1.24122072e+17
1.23990778e+17
1.23918276e+17
1.23908955e+17
1.23967772e+17
1.2410043e+17
1.24313574e+17
1.24615016e+17
1.25013991e+17
1.25521418e+17
1.26150173e+17
1.26915321e+17
1.27834271e+17
1.28926729e+17
1.30214206e+17
1.31718523e+17
1.33457826e+17
1.35435346e+17
1.37603001e+17
1.0408365e+16
1.3719978e+16
1.79441439e+16
2.27868918e+16
2.80133575e+16
3.34605768e+16
3.90179568e+16
4.4610158e+16
5.01851143e+16
5.57061538e+16
6.11469137e+16
6.64880635e+16
7.17151748e+16
7.68173198e+16
8.17861298e+16
8.6615154e+16
9.12994089e+16
9.58350576e+16
1.00219176e+17
1.04449578e+17
1.08524682e+17
1.1244341e+17
1.16205106e+17
1.19809473e+17
1.23256523e+17
1.26546535e+17
1.29680023e+17
1.32657706e+17
1.3548049e+17
1.38149448e+17
1.40665803e+17
1.43030918e+17
1.4524629e+17
1.47313532e+17
1.49234378e+17
1.51010672e+17
1.52644364e+17
1.54137511e+17
1.55492273e+17
1.56710914e+17
1.57795799e+17
1.58749399e+17
1.59574288e+17
1.60273149e+17
1.60848771e+17
1.61304055e+17
1.61642012e+17
1.61865772e+17
1.61978575e+17
1.61983782e+17
1.61884864e+17
1.61685407e+17
1.61389098e+17
1.60999718e+17
1.60536466e+17
1.60017155e+17
1.59444994e+17
1.58823296e+17
1.58155467e+17
1.57445013e+17
1.56695522e+17
1.55910665e+17
1.55094183e+17
1.54249877e+17
1.53381595e+17
1.52493223e+17
1.51588666e+17
1.50671837e+17
1.4974664e+17
1.48816954e+17
1.47886621e+17
1.46959431e+17
1.46039109e+17
1.45129307e+17
1.44233599e+17
1.43355484e+17
1.42498388e+17
1.41665689e+17
1.40860737e+17
1.40086905e+17
1.39347643e+17
1.38646567e+17
1.37987562e+17
1.37374926e+17
1.36813545e+17
1.36309118e+17
1.35868429e+17
1.35499685e+17
1.35212918e+17
1.35020473e+17
1.34937579e+17
1.34983018e+17
1.35179896e+17
1.35556486e+17
1.36147126e+17
1.36993016e+17
1.38142513e+17
1.39649662e+17
1.41566206e+17
1.43906631e+17
1.15394862e+16
1.58816659e+16
2.12196307e+16
2.71076821e+16
3.32958078e+16
3.96346072e+16
4.6030109e+16
5.24204291e+16
5.87629936e+16
6.50273008e+16
7.11907063e+16
7.72359071e+16
8.31493908e+16
8.89204522e+16
9.45405401e+16
1.00002809e+17
1.05301799e+17
1.10433189e+17
1.15393616e+17
1.20180523e+17
1.2479204e+17
1.29226883e+17
1.33484272e+17
1.37563861e+17
1.41465676e+17
1.45190071e+17
1.48737681e+17
1.5210939e+17
1.55306295e+17
1.58329688e+17
1.6118103e+17
1.63861936e+17
1.66374155e+17
1.68719565e+17
1.70900158e+17
1.72918035e+17
1.74775397e+17
1.76474543e+17
1.78017867e+17
1.79407852e+17
1.80647075e+17
1.81738203e+17
1.82683994e+17
1.83487299e+17
1.84151063e+17
1.84678328e+17
1.85072235e+17
1.85336025e+17
1.85473041e+17
1.8548673e+17
1.85380638e+17
1.85158413e+17
1.84823792e+17
1.84380594e+17
1.83842302e+17
1.832313e+17
1.82550948e+17
1.81804703e+17
1.80996113e+17
1.80128817e+17
1.7920654e+17
1.78233079e+17
1.77212302e+17
1.76148131e+17
1.7504453e+17
1.73905492e+17
1.72735023e+17
1.71537125e+17
1.70315779e+17
1.69074924e+17
1.67818444e+17
1.66550146e+17
1.6527375e+17
1.63992867e+17
1.62711003e+17
1.61431544e+17
1.60157769e+17
1.58892864e+17
1.57639947e+17
1.5640212e+17
1.55182531e+17
1.53984475e+17
1.52811516e+17
1.51667662e+17
1.50557587e+17
1.49486913e+17
1.48462574e+17
1.47493273e+17
1.4659006e+17
1.4576704e+17
1.45042271e+17
1.44438861e+17
1.43986342e+17
1.43722353e+17
1.43694737e+17
1.43964073e+17
1.44606603e+17
1.45716842e+17
1.47406051e+17
1.49775899e+17
1.27373373e+16
1.82773034e+16
2.47750083e+16
3.16981793e+16
3.88160488e+16
4.60079517e+16
5.32028892e+16
6.03548339e+16
6.74313536e+16
7.44080173e+16
8.12655142e+16
8.79881122e+16
9.45627825e+16
1.00978672e+17
1.07226753e+17
1.13299562e+17
1.19191004e+17
1.24896178e+17
1.30411227e+17
1.35733209e+17
1.40859982e+17
1.45790094e+17
1.50522698e+17
1.55057463e+17
1.59394512e+17
1.63534351e+17
1.67477823e+17
1.71226055e+17
1.74780423e+17
1.78142518e+17
1.81314114e+17
1.84297146e+17
1.87093689e+17
1.89705945e+17
1.92136222e+17
1.9438693e+17
1.96460569e+17
1.98359722e+17
2.00087054e+17
2.01645302e+17
2.03037282e+17
2.0426588e+17
2.05334057e+17
2.06244851e+17
2.07001373e+17
2.07606817e+17
2.08064456e+17
2.08377646e+17
2.0854983e+17
2.08584536e+17
2.08485378e+17
2.08256054e+17
2.07900337e+17
2.07422073e+17
2.06829469e+17
2.06148866e+17
2.05383728e+17
2.04537605e+17
2.03614136e+17
2.02617039e+17
2.01550111e+17
2.00417216e+17
1.99222277e+17
1.97969262e+17
1.96662171e+17
1.95305022e+17
1.93901831e+17
1.92456591e+17
1.90973256e+17
1.89455718e+17
1.87907783e+17
1.86333152e+17
1.84735399e+17
1.83117955e+17
1.81484092e+17
1.79836916e+17
1.78179366e+17
1.76514225e+17
1.74844143e+17
1.73171685e+17
1.71499396e+17
1.69829898e+17
1.68166034e+17
1.66511051e+17
1.64868854e+17
1.63244335e+17
1.61643805e+17
1.60075548e+17
1.58550544e+17
1.57083387e+17
1.55693472e+17
1.54406526e+17
1.53256589e+17
1.52288605e+17
1.51561857e+17
1.51154566e+17
1.51170098e+17
1.51745046e+17
1.53057245e+17
1.55315684e+17
1.4001844e+16
2.08486688e+16
2.850743e+16
3.64347993e+16
4.44454116e+16
5.24557629e+16
6.04198208e+16
6.83071521e+16
7.60945381e+16
8.37626227e+16
9.12945743e+16
9.86755678e+16
1.05892579e+17
1.12934285e+17
1.19790981e+17
1.26454492e+17
1.3291806e+17
1.3917623e+17
1.45224721e+17
1.51060301e+17
1.56680665e+17
1.62084318e+17
1.67270468e+17
1.72238934e+17
1.76990053e+17
1.81524609e+17
1.85843764e+17
1.89949001e+17
1.93842073e+17
1.9752496e+17
2.00999836e+17
2.04269034e+17
2.07335024e+17
2.1020039e+17
2.12867817e+17
2.1534007e+17
2.17619989e+17
2.19710481e+17
2.21614511e+17
2.23335099e+17
2.2487532e+17
2.26238299e+17
2.27427215e+17
2.28445301e+17
2.29295844e+17
2.29982192e+17
2.30507752e+17
2.30875995e+17
2.31090459e+17
2.31154748e+17
2.31072534e+17
2.30847556e+17
2.30483612e+17
2.29984556e+17
2.29353821e+17
2.28621114e+17
2.27789967e+17
2.26863984e+17
2.25846849e+17
2.24742315e+17
2.235542e+17
2.22286382e+17
2.20942784e+17
2.19527363e+17
2.18044097e+17
2.16496961e+17
2.14889915e+17
2.13226876e+17
2.11511699e+17
2.09748149e+17
2.07939874e+17
2.06090384e+17
2.04203019e+17
2.02280929e+17
2.00327051e+17
1.98344096e+17
1.96334539e+17
1.94300622e+17
1.92244373e+17
1.90167643e+17
1.88072166e+17
1.85959657e+17
1.83831952e+17
1.81691199e+17
1.79540127e+17
1.77382404e+17
1.75223112e+17
1.73069376e+17
1.70931198e+17
1.6882255e+17
1.66762813e+17
1.64778698e+17
1.62906808e+17
1.6119713e+17
1.59717856e+17
1.58562235e+17
1.57858518e+17
1.57784633e+17
1.58588525e+17
1.60601874e+17
1.53296713e+16
2.35391086e+16
3.23319801e+16
4.12237333e+16
5.00916064e+16
5.8892311e+16
6.76037707e+16
7.62092285e+16
8.46928633e+16
9.30389563e+16
1.01232118e+17
1.09257739e+17
1.17102376e+17
1.24754015e+17
1.32202204e+17
1.39438079e+17
1.46454318e+17
1.53245055e+17
1.59805753e+17
1.66133069e+17
1.72224722e+17
1.78079356e+17
1.83696414e+17
1.89076028e+17
1.9421891e+17
1.99126262e+17
2.037997e+17
2.08241178e+17
2.12452933e+17
2.16437433e+17
2.20197333e+17
2.23735439e+17
2.27054679e+17
2.30158079e+17
2.33048744e+17
2.35729838e+17
2.38204576e+17
2.40476216e+17
2.42548047e+17
2.44423391e+17
2.46105595e+17
2.47598037e+17
2.4890412e+17
2.50027277e+17
2.50970974e+17
2.51738711e+17
2.52334029e+17
2.52760508e+17
2.53021774e+17
2.53121502e+17
2.53063412e+17
2.52851273e+17
2.52488898e+17
2.51980135e+17
2.51324138e+17
2.50553449e+17
2.49671634e+17
2.48682319e+17
2.47589195e+17
2.46396012e+17
2.45106573e+17
2.43724724e+17
2.42254348e+17
2.40699343e+17
2.39063615e+17
2.37351049e+17
2.35565498e+17
2.33710748e+17
2.31790499e+17
2.29808333e+17
2.27767683e+17
2.25671804e+17
2.23523739e+17
2.21326291e+17
2.19081992e+17
2.16793081e+17
2.14461488e+17
2.12088825e+17
2.09676395e+17
2.0722522e+17
2.04736091e+17
2.02209654e+17
1.99646548e+17
1.97047587e+17
1.94414035e+17
1.91747972e+17
1.89052796e+17
1.863339e+17
1.83599582e+17
1.80862269e+17
1.78140165e+17
1.75459503e+17
1.72857627e+17
1.70387325e+17
1.68123019e+17
1.66169909e+17
1.6467794e+17
1.63863889e+17
1.64046386e+17
1.65690596e+17
1.67148754e+16
2.62999071e+16
3.61839961e+16
4.59984046e+16
5.5692366e+16
6.52620119e+16
7.47063267e+16
8.40194018e+16
9.3190587e+16
1.02206218e+17
1.11051305e+17
1.19710829e+17
1.28170613e+17
1.36417848e+17
1.44441375e+17
1.52231782e+17
1.59781382e+17
1.67084123e+17
1.74135453e+17
1.80932165e+17
1.87472235e+17
1.93754669e+17
1.99779352e+17
2.05546917e+17
2.11058619e+17
2.16316236e+17
2.21321968e+17
2.26078364e+17
2.30588247e+17
2.34854661e+17
2.38880821e+17
2.42670072e+17
2.46225856e+17
2.49551686e+17
2.52651125e+17
2.55527767e+17
2.58185227e+17
2.60627132e+17
2.62857112e+17
2.64878799e+17
2.66695822e+17
2.68311812e+17
2.69730398e+17
2.70955214e+17
2.71989899e+17
2.72838105e+17
2.73503496e+17
2.73989757e+17
2.74300596e+17
2.74439744e+17
2.74410965e+17
2.74218046e+17
2.73864802e+17
2.73355066e+17
2.72684194e+17
2.71887083e+17
2.70967306e+17
2.69928482e+17
2.68774284e+17
2.67508425e+17
2.66134659e+17
2.6465677e+17
2.63078562e+17
2.61403841e+17
2.59636401e+17
2.57779999e+17
2.55838338e+17
2.53815035e+17
2.5171359e+17
2.4953736e+17
2.47289519e+17
2.44973023e+17
2.42590571e+17
2.40144572e+17
2.37637103e+17
2.35069884e+17
2.32444243e+17
2.29761103e+17
2.2702098e+17
2.24223991e+17
2.21369897e+17
2.18458174e+17
2.15488135e+17
2.12459102e+17
2.09370674e+17
2.06223085e+17
2.03017715e+17
1.9975779e+17
1.96449337e+17
1.93102497e+17
1.89733331e+17
1.86366333e+17
1.83037959e+17
1.79801706e+17
1.76735587e+17
1.73953517e+17
1.71623395e+17
1.69997137e+17
1.69462263e+17
1.7062406e+17
1.81498594e+16
2.90919506e+16
4.00167692e+16
5.07139225e+16
6.12078757e+16
7.15308071e+16
8.16987952e+16
9.1713545e+16
1.01567248e+17
1.11246746e+17
1.20736506e+17
1.30020595e+17
1.390839e+17
1.47912833e+17
1.56495673e+17
1.64822685e+17
1.72886087e+17
1.80679933e+17
1.88199947e+17
1.95443333e+17
2.02408592e+17
2.09095331e+17
2.15504096e+17
2.21636214e+17
2.27493661e+17
2.33078935e+17
2.38394954e+17
2.43444971e+17
2.48232491e+17
2.52761215e+17
2.57034981e+17
2.61057729e+17
2.64833456e+17
2.68366199e+17
2.71660006e+17
2.74718921e+17
2.77546973e+17
2.80148169e+17
2.82526483e+17
2.84685859e+17
2.8663021e+17
2.88363415e+17
2.89889327e+17
2.91211771e+17
2.92334556e+17
2.93261473e+17
2.93996304e+17
2.94542829e+17
2.94904825e+17
2.95086075e+17
2.95090372e+17
2.94921513e+17
2.94583305e+17
2.94079555e+17
2.93402276e+17
2.92588296e+17
2.91641172e+17
2.90564499e+17
2.89361901e+17
2.88037035e+17
2.86593579e+17
2.85035228e+17
2.83365679e+17
2.81588615e+17
2.7970769e+17
2.77726505e+17
2.75648579e+17
2.73477326e+17
2.7121602e+17
2.68867756e+17
2.66435417e+17
2.63921627e+17
2.6132871e+17
2.58658647e+17
2.55913029e+17
2.53093018e+17
2.50199308e+17
2.47232099e+17
2.44191074e+17
2.41075402e+17
2.37883761e+17
2.34614393e+17
2.31265201e+17
2.27833917e+17
2.24318334e+17
2.20716662e+17
2.17028024e+17
2.13253155e+17
2.09395377e+17
2.0546196e+17
2.01466037e+17
1.97429305e+17
1.93385916e+17
1.89388192e+17
1.85515253e+17
1.81886522e+17
1.78683865e+17
1.76189835e+17
1.74857225e+17
1.75434422e+17
1.962629e+16
3.18851605e+16
4.37979265e+16
5.5341494e+16
6.66142165e+16
7.76793216e+16
8.85654962e+16
9.92787406e+16
1.09811845e+17
1.20150749e+17
1.30278585e+17
1.40178139e+17
1.49833291e+17
1.59229781e+17
1.68355559e+17
1.77200858e+17
1.85758124e+17
1.94021841e+17
2.01988326e+17
2.09655494e+17
2.1702264e+17
2.24090217e+17
2.30859649e+17
2.3733315e+17
2.43513575e+17
2.49404286e+17
2.55009038e+17
2.60331883e+17
2.65377092e+17
2.70149086e+17
2.74652383e+17
2.78891553e+17
2.82871186e+17
2.86595861e+17
2.90070127e+17
2.93298489e+17
2.96285394e+17
2.99035228e+17
3.01552309e+17
3.03840889e+17
3.05905153e+17
3.07749223e+17
3.09377163e+17
3.10792984e+17
3.12000648e+17
3.13004077e+17
3.13807161e+17
3.14413759e+17
3.14827712e+17
3.15052843e+17
3.15092961e+17
3.14951866e+17
3.14633346e+17
3.14141177e+17
3.13464438e+17
3.1264153e+17
3.11675978e+17
3.10571329e+17
3.09331147e+17
3.07959009e+17
3.06458498e+17
3.048332e+17
3.03086683e+17
3.01222488e+17
2.99244105e+17
2.97154952e+17
2.94958346e+17
2.92657475e+17
2.90255359e+17
2.87754811e+17
2.85158398e+17
2.8246839e+17
2.79686712e+17
2.76814895e+17
2.73854022e+17
2.70804679e+17
2.67666903e+17
2.64440145e+17
2.61123239e+17
2.57714378e+17
2.54211126e+17
2.50610453e+17
2.4690881e+17
2.43102266e+17
2.39186725e+17
2.35158251e+17
2.31013541e+17
2.26750604e+17
2.22369729e+17
2.17874863e+17
2.13275576e+17
2.08589896e+17
2.03848466e+17
1.99100775e+17
1.9442478e+17
1.89942354e+17
1.85845304e+17
1.82441857e+17
1.80245113e+17
1.80146432e+17
2.11358044e+16
3.46571133e+16
4.75059327e+16
5.98638018e+16
7.18983413e+16
8.36978857e+16
9.52990879e+16
1.0670904e+17
1.1791908e+17
1.28913042e+17
1.396721e+17
1.50177543e+17
1.60412279e+17
1.70361583e+17
1.80013361e+17
1.89358158e+17
1.98388995e+17
2.07101135e+17
2.15491811e+17
2.23559947e+17
2.31305898e+17
2.38731204e+17
2.45838368e+17
2.52630668e+17
2.59111989e+17
2.65286678e+17
2.71159429e+17
2.76735178e+17
2.82019027e+17
2.87016167e+17
2.91731833e+17
2.96171258e+17
3.00339637e+17
3.04242106e+17
3.0788372e+17
3.11269443e+17
3.14404136e+17
3.17292558e+17
3.19939361e+17
3.22349093e+17
3.24526199e+17
3.26475032e+17
3.28199852e+17
3.29704839e+17
3.30994098e+17
3.3207167e+17
3.32941534e+17
3.33607623e+17
3.34073825e+17
3.34343992e+17
3.34421944e+17
3.34311472e+17
3.34016338e+17
3.33540276e+17
3.32869807e+17
3.32044596e+17
3.31068127e+17
3.29943885e+17
3.28675356e+17
3.27266026e+17
3.2571937e+17
3.24038846e+17
3.22227881e+17
3.20289856e+17
3.18228083e+17
3.16045782e+17
3.13746051e+17
3.11331834e+17
3.08805882e+17
3.06170711e+17
3.03428555e+17
3.00581316e+17
2.97630506e+17
2.94577193e+17
2.91421939e+17
2.88164741e+17
2.8480497e+17
2.81341322e+17
2.77771765e+17
2.74093509e+17
2.70302993e+17
2.66395896e+17
2.62367189e+17
2.58211249e+17
2.53922036e+17
2.49493389e+17
2.44919466e+17
2.4019538e+17
2.35318147e+17
2.30288041e+17
2.25110569e+17
2.19799378e+17
2.14380586e+17
2.08899412e+17
2.03430624e+17
1.98095695e+17
1.9309245e+17
1.88749618e+17
1.8563469e+17
1.84779292e+17
2.26704777e+16
3.73915284e+16
5.11271858e+16
6.42714934e+16
7.70544483e+16
8.95830752e+16
1.01897424e+17
1.14002707e+17
1.25887013e+17
1.37531083e+17
1.48913701e+17
1.60014572e+17
1.70815781e+17
1.81302402e+17
1.91462644e+17
2.01287726e+17
2.10771611e+17
2.19910688e+17
2.28703426e+17
2.37150046e+17
2.45252218e+17
2.53012783e+17
2.60435516e+17
2.67524912e+17
2.74286014e+17
2.80724264e+17
2.86845374e+17
2.92655234e+17
2.98159821e+17
3.03365135e+17
3.08277154e+17
3.12901783e+17
3.17244835e+17
3.21311999e+17
3.25108834e+17
3.28640752e+17
3.31913021e+17
3.34930756e+17
3.37698928e+17
3.40222364e+17
3.42505754e+17
3.44553662e+17
3.46370529e+17
3.47960689e+17
3.49328373e+17
3.50477723e+17
3.51412798e+17
3.52137589e+17
3.52656021e+17
3.52971963e+17
3.53089235e+17
3.53011613e+17
3.52742825e+17
3.52286557e+17
3.5164486e+17
3.50822619e+17
3.49841138e+17
3.48703846e+17
3.47414163e+17
3.4597549e+17
3.44391206e+17
3.42664657e+17
3.40799137e+17
3.38797878e+17
3.36664022e+17
3.34400597e+17
3.32010487e+17
3.29496395e+17
3.26860804e+17
3.24105928e+17
3.21233668e+17
3.18245549e+17
3.15142667e+17
3.11925619e+17
3.08594441e+17
3.05148535e+17
3.015866e+17
2.97906569e+17
2.94105545e+17
2.90179749e+17
2.86124487e+17
2.81934143e+17
2.776022e+17
2.7312132e+17
2.68483492e+17
2.63680282e+17
2.58703229e+17
2.53544437e+17
2.48197469e+17
2.42658658e+17
2.36929056e+17
2.31017349e+17
2.24944289e+17
2.18749592e+17
2.12503042e+17
2.06323114e+17
2.00409916e+17
1.9510748e+17
1.91031145e+17
1.89347995e+17
2.42230852e+16
4.00769033e+16
5.46537729e+16
6.85606316e+16
8.20814517e+16
9.53353736e+16
1.08361492e+17
1.21160467e+17
1.33715612e+17
1.46003824e+17
1.58001232e+17
1.69686009e+17
1.81039641e+17
1.92047334e+17
2.0269797e+17
2.12983824e+17
2.22900167e+17
2.32444852e+17
2.41617891e+17
2.50421069e+17
2.58857603e+17
2.66931834e+17
2.74648968e+17
2.82014855e+17
2.89035803e+17
2.95718431e+17
3.02069541e+17
3.08096015e+17
3.13804745e+17
3.19202561e+17
3.24296189e+17
3.29092218e+17
3.33597067e+17
3.37816977e+17
3.41757992e+17
3.45425962e+17
3.48826539e+17
3.51965178e+17
3.54847149e+17
3.57477536e+17
3.59861257e+17
3.62003065e+17
3.63907565e+17
3.65579225e+17
3.67022386e+17
3.68241275e+17
3.69240017e+17
3.70022646e+17
3.70593112e+17
3.70955293e+17
3.71113e+17
3.71069982e+17
3.70829929e+17
3.70396474e+17
3.69773186e+17
3.68958952e+17
3.67978474e+17
3.66835082e+17
3.65532074e+17
3.64072715e+17
3.62460228e+17
3.60697788e+17
3.58788511e+17
3.5673543e+17
3.54541479e+17
3.52209463e+17
3.49742025e+17
3.47141613e+17
3.4441043e+17
3.41550389e+17
3.38563058e+17
3.35449598e+17
3.32210696e+17
3.28846499e+17
3.2535653e+17
3.21739618e+17
3.17993812e+17
3.14116303e+17
3.10103349e+17
3.05950205e+17
3.01651067e+17
2.97199038e+17
2.92586127e+17
2.8780329e+17
2.82840541e+17
2.77687157e+17
2.72332017e+17
2.66764142e+17
2.60973515e+17
2.54952333e+17
2.48696887e+17
2.42210442e+17
2.3550768e+17
2.28621769e+17
2.21615941e+17
2.14603326e+17
2.07782825e+17
2.01508672e+17
1.96437144e+17
1.93864307e+17
2.57872163e+16
4.27053804e+16
5.80817958e+16
7.27308885e+16
8.69812501e+16
1.0095762e+17
1.1469409e+17
1.28184414e+17
1.41405897e+17
1.54331054e+17
1.66933262e+17
1.79189322e+17
1.91080424e+17
2.0259228e+17
2.13714837e+17
2.24441805e+17
2.34770125e+17
2.44699434e+17
2.5423157e+17
2.63370127e+17
2.72120075e+17
2.80487424e+17
2.88478952e+17
2.96101971e+17
3.03364143e+17
3.10273328e+17
3.16837458e+17
3.23064447e+17
3.28962114e+17
3.34538127e+17
3.39799964e+17
3.44754883e+17
3.49409904e+17
3.53771797e+17
3.57847077e+17
3.61642009e+17
3.65162606e+17
3.68414641e+17
3.71403658e+17
3.7413498e+17
3.76613725e+17
3.78844817e+17
3.80833003e+17
3.82582867e+17
3.84098842e+17
3.85385226e+17
3.86446192e+17
3.87285806e+17
3.87908031e+17
3.88316742e+17
3.88515734e+17
3.88508722e+17
3.88299353e+17
3.878912e+17
3.87287762e+17
3.86485324e+17
3.8551016e+17
3.84365524e+17
3.83054625e+17
3.81580619e+17
3.79946606e+17
3.78155619e+17
3.7621061e+17
3.74114429e+17
3.71869806e+17
3.6947932e+17
3.66945365e+17
3.64270117e+17
3.61455484e+17
3.58503058e+17
3.55414055e+17
3.52189253e+17
3.48828922e+17
3.45332741e+17
3.41699724e+17
3.37928125e+17
3.3401535e+17
3.29957864e+17
3.25751096e+17
3.21389356e+17
3.16865756e+17
3.1217215e+17
3.07299098e+17
3.02235877e+17
2.96970545e+17
2.91490099e+17
2.8578075e+17
2.798284e+17
2.7361938e+17
2.6714161e+17
2.60386393e+17
2.53351203e+17
2.46044088e+17
2.3849078e+17
2.30746603e+17
2.22917242e+17
2.15197166e+17
2.079459e+17
2.01853584e+17
1.9833749e+17
2.73572916e+16
4.52718466e+16
6.1410149e+16
7.67842848e+16
9.17575593e+16
1.06453996e+17
1.20898982e+17
1.35077352e+17
1.48959434e+17
1.62513038e+17
1.75708837e+17
1.88522519e+17
2.00935343e+17
2.12933924e+17
2.24509675e+17
2.35658122e+17
2.46378213e+17
2.56671671e+17
2.66542415e+17
2.75996067e+17
2.85039525e+17
2.93680612e+17
3.0192779e+17
3.09789921e+17
3.17276083e+17
3.24395421e+17
3.31157028e+17
3.3756986e+17
3.43642671e+17
3.49383962e+17
3.5480195e+17
3.5990455e+17
3.64699359e+17
3.69193655e+17
3.73394401e+17
3.77308247e+17
3.80941546e+17
3.84300362e+17
3.87390487e+17
3.90217457e+17
3.92786568e+17
3.95102895e+17
3.97171305e+17
3.98996477e+17
4.0058292e+17
4.01934986e+17
4.03056882e+17
4.03952692e+17
4.04626383e+17
4.05081817e+17
4.05322762e+17
4.05352896e+17
4.05175814e+17
4.04795028e+17
4.04213966e+17
4.03426583e+17
4.02460509e+17
4.01318917e+17
4.00004916e+17
3.98521555e+17
3.96871812e+17
3.95058581e+17
3.93084663e+17
3.90952737e+17
3.88665344e+17
3.86224855e+17
3.83633433e+17
3.80892997e+17
3.78005174e+17
3.74971242e+17
3.71792076e+17
3.68468074e+17
3.64999086e+17
3.61384332e+17
3.57622309e+17
3.53710701e+17
3.49646272e+17
3.45424766e+17
3.41040796e+17
3.36487744e+17
3.31757655e+17
3.26841156e+17
3.21727391e+17
3.16403985e+17
3.10857072e+17
3.0507139e+17
2.99030499e+17
2.92717175e+17
2.86114056e+17
2.79204704e+17
2.71975268e+17
2.64417153e+17
2.56531309e+17
2.48335301e+17
2.39875369e+17
2.31247901e+17
2.22639976e+17
2.14411752e+17
2.07280137e+17
2.02774858e+17
2.89285211e+16
4.7773235e+16
6.46396391e+16
8.07243184e+16
9.64151338e+16
1.1182937e+17
1.26980378e+17
1.41842391e+17
1.56378053e+17
1.70550331e+17
1.84327374e+17
1.97684097e+17
2.10602235e+17
2.23069729e+17
2.35079858e+17
2.46630326e+17
2.57722409e+17
2.68360187e+17
2.78549892e+17
2.88299354e+17
2.97617552e+17
3.06514237e+17
3.14999642e+17
3.23084243e+17
3.30778575e+17
3.38093092e+17
3.45038062e+17
3.51623485e+17
3.5785904e+17
3.63754046e+17
3.69317441e+17
3.74557771e+17
3.79483187e+17
3.84101446e+17
3.88419929e+17
3.92445647e+17
3.96185259e+17
3.99645095e+17
4.0283117e+17
4.05749207e+17
4.08404657e+17
4.1080272e+17
4.12948365e+17
4.14846349e+17
4.16501236e+17
4.17917417e+17
4.19099121e+17
4.20050438e+17
4.20775324e+17
4.21277623e+17
4.21561066e+17
4.2162929e+17
4.21485833e+17
4.21134143e+17
4.20577574e+17