/*--------------------------------*- C++ -*----------------------------------*\
| =========                 |                                                 |
| \\      /  F ield         | OpenFOAM Extend Project: Open source CFD        |
|  \\    /   O peration     | Version:  1.6-ext                               |
|   \\  /    A nd           | Web:      www.extend-project.de                 |
|    \\/     M anipulation  |                                                 |
\*---------------------------------------------------------------------------*/
FoamFile
{
    version     2.0;
    format      ascii;
    class       volScalarField;
    location    "4000";
    object      prec7;
}
// * * * * * * * * * * * * * * * * * * * * * * * * * * * * * * * * * * * * * //

dimensions      [0 -3 0 0 0 0 0];

internalField   nonuniform List<scalar> 
40000
(
4.81485762e+13
5.71148569e+13
6.61416303e+13
7.52325262e+13
8.43894424e+13
9.36171467e+13
1.02899041e+14
1.12240928e+14
1.21642437e+14
1.31103231e+14
1.40622952e+14
1.50201198e+14
1.59837498e+14
1.69531314e+14
1.79282025e+14
1.89088935e+14
1.98951262e+14
2.08868144e+14
2.18838635e+14
2.28861706e+14
2.38936245e+14
2.49061056e+14
2.5923486e+14
2.6945629e+14
2.79723898e+14
2.90036146e+14
3.00391411e+14
3.1078798e+14
3.21224051e+14
3.31697731e+14
3.42207034e+14
3.52749877e+14
3.63324083e+14
3.73927378e+14
3.84557385e+14
3.95211627e+14
4.05887522e+14
4.16582383e+14
4.27293414e+14
4.38017708e+14
4.48752248e+14
4.59493901e+14
4.70239418e+14
4.8098543e+14
4.91728449e+14
5.02464863e+14
5.13190936e+14
5.23902802e+14
5.34596468e+14
5.45267809e+14
5.55912565e+14
5.66526341e+14
5.77104604e+14
5.87652885e+14
5.98163243e+14
6.08624216e+14
6.19029912e+14
6.29374937e+14
6.39653807e+14
6.49860876e+14
6.59990338e+14
6.70036218e+14
6.79992374e+14
6.89852493e+14
6.99610093e+14
7.09258516e+14
7.18790927e+14
7.28200311e+14
7.37479468e+14
7.46621012e+14
7.55617367e+14
7.64460758e+14
7.73143216e+14
7.81656566e+14
7.89992426e+14
7.981422e+14
8.06097077e+14
8.13848022e+14
8.21385773e+14
8.28700835e+14
8.35783473e+14
8.4262371e+14
8.49211317e+14
8.55535809e+14
8.61586442e+14
8.67352206e+14
8.7282182e+14
8.77983732e+14
8.82826118e+14
8.87336883e+14
8.91503665e+14
8.95313849e+14
8.98754575e+14
9.01812763e+14
9.04475139e+14
9.0672826e+14
9.08558552e+14
9.09952338e+14
9.10895865e+14
9.11375314e+14
5.71090596e+13
6.77755221e+13
7.85167798e+13
8.93573779e+13
1.00264578e+14
1.11238252e+14
1.22277499e+14
1.33380743e+14
1.4454699e+14
1.55775606e+14
1.67066157e+14
1.78418312e+14
1.89831772e+14
2.01306228e+14
2.12841328e+14
2.24436659e+14
2.3609173e+14
2.47805967e+14
2.59578703e+14
2.71409177e+14
2.83296527e+14
2.9523979e+14
3.07237901e+14
3.19289688e+14
3.31393875e+14
3.43549075e+14
3.55753793e+14
3.6800642e+14
3.80305233e+14
3.92648394e+14
4.05033944e+14
4.17459801e+14
4.2992376e+14
4.42423488e+14
4.54956517e+14
4.67520249e+14
4.80111944e+14
4.92728725e+14
5.05367567e+14
5.18025297e+14
5.30698594e+14
5.43383979e+14
5.56077816e+14
5.6877631e+14
5.81475498e+14
5.94171255e+14
6.06859281e+14
6.19535107e+14
6.32194084e+14
6.44831389e+14
6.57442012e+14
6.70020761e+14
6.82562249e+14
6.95076014e+14
7.07569101e+14
7.2001491e+14
7.32401375e+14
7.44720385e+14
7.56964787e+14
7.69127549e+14
7.81201519e+14
7.93179367e+14
8.05053558e+14
8.16816355e+14
8.28459808e+14
8.39975758e+14
8.51355831e+14
8.62591439e+14
8.73673774e+14
8.84593806e+14
8.95342282e+14
9.05909719e+14
9.16286401e+14
9.26462375e+14
9.36427445e+14
9.46171168e+14
9.55682849e+14
9.64951533e+14
9.73965999e+14
9.82714756e+14
9.91186035e+14
9.9936778e+14
1.00724765e+15
1.01481299e+15
1.02205086e+15
1.02894801e+15
1.03549088e+15
1.04166558e+15
1.04745792e+15
1.05285343e+15
1.05783731e+15
1.06239449e+15
1.06650964e+15
1.07016721e+15
1.07335143e+15
1.07604635e+15
1.07823589e+15
1.07990388e+15
1.08103402e+15
1.08161002e+15
6.61285032e+13
7.85054496e+13
9.10043204e+13
1.03585766e+14
1.16250305e+14
1.28991861e+14
1.41806011e+14
1.54689636e+14
1.67640587e+14
1.80657403e+14
1.93739096e+14
2.06884988e+14
2.20094594e+14
2.33367537e+14
2.46703486e+14
2.60102112e+14
2.73563054e+14
2.87085899e+14
3.00670161e+14
3.14315272e+14
3.28020572e+14
3.41785301e+14
3.55608596e+14
3.69489483e+14
3.83426876e+14
3.97419574e+14
4.11466254e+14
4.25565472e+14
4.39715654e+14
4.53915097e+14
4.68161961e+14
4.82454265e+14
4.96789886e+14
5.11166549e+14
5.25581823e+14
5.40033119e+14
5.5451768e+14
5.69032577e+14
5.83574706e+14
5.98140779e+14
6.12727319e+14
6.27330656e+14
6.41946922e+14
6.56572044e+14
6.71201738e+14
6.85831507e+14
7.00456636e+14
7.15072184e+14
7.29672982e+14
7.44253628e+14
7.58808479e+14
7.73331649e+14
7.87816991e+14
8.02268913e+14
8.1671748e+14
8.31126159e+14
8.45476003e+14
8.59754841e+14
8.73952999e+14
8.88061622e+14
9.02072019e+14
9.159754e+14
9.29762779e+14
9.43424936e+14
9.56952398e+14
9.70335437e+14
9.8356406e+14
9.9662801e+14
1.00951677e+15
1.02221953e+15
1.03472525e+15
1.04702257e+15
1.05909988e+15
1.07094528e+15
1.08254657e+15
1.09389128e+15
1.10496664e+15
1.11575956e+15
1.12625667e+15
1.13644427e+15
1.14630838e+15
1.15583465e+15
1.16500847e+15
1.17381487e+15
1.18223856e+15
1.19026397e+15
1.19787517e+15
1.20505597e+15
1.21178986e+15
1.21806009e+15
1.22384964e+15
1.22914127e+15
1.23391755e+15
1.23816091e+15
1.2418536e+15
1.2449778e+15
1.24751555e+15
1.24944883e+15
1.25075939e+15
1.25142904e+15
7.52172257e+13
8.93440252e+13
1.03583525e+14
1.17925028e+14
1.32361033e+14
1.46883994e+14
1.61487836e+14
1.76167863e+14
1.90920542e+14
2.05743266e+14
2.20634136e+14
2.35591776e+14
2.50615185e+14
2.65703621e+14
2.80856511e+14
2.96073382e+14
3.11353812e+14
3.26697381e+14
3.42103655e+14
3.57572148e+14
3.73102318e+14
3.88693544e+14
4.04345119e+14
4.20056244e+14
4.35826014e+14
4.51653417e+14
4.67537325e+14
4.83476491e+14
4.99469538e+14
5.15514956e+14
5.31611095e+14
5.47756157e+14
5.63948191e+14
5.80185083e+14
5.96464546e+14
6.12784119e+14
6.29141152e+14
6.45532798e+14
6.6195601e+14
6.78407523e+14
6.94883857e+14
7.11381295e+14
7.27895888e+14
7.44423436e+14
7.60959484e+14
7.77499316e+14
7.94037945e+14
8.10570103e+14
8.27090237e+14
8.435925e+14
8.6007074e+14
8.76518491e+14
8.92928958e+14
9.09296434e+14
9.25676425e+14
9.42026288e+14
9.58321259e+14
9.74544871e+14
9.9068442e+14
1.0067288e+15
1.02266749e+15
1.03849007e+15
1.05418597e+15
1.06974442e+15
1.08515435e+15
1.10040438e+15
1.11548281e+15
1.13037762e+15
1.14507646e+15
1.15956665e+15
1.17383518e+15
1.1878687e+15
1.20165352e+15
1.21517561e+15
1.22842062e+15
1.24137382e+15
1.25402018e+15
1.26634428e+15
1.27833039e+15
1.28996243e+15
1.30122395e+15
1.3120982e+15
1.32256807e+15
1.33261614e+15
1.34222469e+15
1.35137569e+15
1.36005085e+15
1.36823164e+15
1.37589931e+15
1.38303497e+15
1.38961957e+15
1.39563398e+15
1.40105905e+15
1.40587559e+15
1.41006443e+15
1.41360639e+15
1.41648224e+15
1.41867266e+15
1.42015802e+15
1.42091867e+15
8.43812696e+13
1.00267355e+14
1.16268965e+14
1.3238417e+14
1.48604442e+14
1.64921618e+14
1.81328484e+14
1.97818996e+14
2.14388259e+14
2.31032405e+14
2.47748423e+14
2.64533996e+14
2.81387349e+14
2.98307117e+14
3.15292244e+14
3.32341892e+14
3.49455369e+14
3.66632079e+14
3.83871477e+14
4.01173034e+14
4.18536211e+14
4.35960437e+14
4.53445091e+14
4.70989493e+14
4.88592885e+14
5.06254422e+14
5.23973169e+14
5.4174808e+14
5.59578001e+14
5.77461651e+14
5.95397616e+14
6.13384341e+14
6.31420117e+14
6.49503071e+14
6.67631153e+14
6.85802129e+14
7.04013562e+14
7.22262808e+14
7.40546996e+14
7.58863018e+14
7.77207521e+14
7.95576887e+14
8.13967223e+14
8.32374352e+14
8.50793797e+14
8.69220768e+14
8.87650155e+14
9.06076509e+14
9.24494036e+14
9.42896583e+14
9.61277621e+14
9.79630235e+14
9.97947096e+14
1.0162095e+15
1.03449891e+15
1.05276899e+15
1.07099044e+15
1.08914286e+15
1.10721041e+15
1.1251795e+15
1.14303755e+15
1.16077231e+15
1.17837154e+15
1.19582278e+15
1.21311327e+15
1.2302299e+15
1.24715919e+15
1.26388725e+15
1.2803998e+15
1.29668215e+15
1.31271919e+15
1.32849543e+15
1.34399494e+15
1.35920139e+15
1.37409806e+15
1.3886678e+15
1.40289309e+15
1.41675599e+15
1.43023819e+15
1.44332099e+15
1.45598533e+15
1.4682118e+15
1.47998067e+15
1.49127189e+15
1.50206517e+15
1.51233995e+15
1.52207551e+15
1.53125101e+15
1.53984551e+15
1.5478381e+15
1.5552079e+15
1.56193419e+15
1.56799643e+15
1.57337427e+15
1.57804759e+15
1.58199642e+15
1.5852008e+15
1.58764068e+15
1.58929553e+15
1.59014459e+15
9.36253205e+13
1.11281868e+14
1.2906465e+14
1.46968837e+14
1.64987161e+14
1.83111606e+14
2.01334389e+14
2.19648487e+14
2.38047836e+14
2.56527354e+14
2.75082865e+14
2.93710987e+14
3.12409001e+14
3.31174735e+14
3.50006448e+14
3.68902739e+14
3.87862464e+14
4.06884673e+14
4.25968553e+14
4.45113387e+14
4.64318515e+14
4.83583306e+14
5.02907138e+14
5.2228937e+14
5.41729334e+14
5.61226311e+14
5.80779525e+14
6.00388124e+14
6.2005117e+14
6.39767623e+14
6.59536335e+14
6.79356027e+14
6.99225283e+14
7.19142529e+14
7.39106025e+14
7.59113841e+14
7.79163848e+14
7.99253698e+14
8.19380808e+14
8.39542341e+14
8.59735192e+14
8.79955968e+14
9.0020097e+14
9.2046618e+14
9.40747236e+14
9.61039423e+14
9.81337648e+14
1.00163643e+15
1.02192988e+15
1.04221167e+15
1.06247504e+15
1.08271277e+15
1.10291711e+15
1.1230676e+15
1.14323991e+15
1.16340659e+15
1.18353385e+15
1.20359732e+15
1.22357784e+15
1.2434591e+15
1.26322625e+15
1.28286502e+15
1.30236132e+15
1.32170089e+15
1.34086919e+15
1.35985129e+15
1.37863184e+15
1.39719499e+15
1.41552443e+15
1.43360332e+15
1.45141437e+15
1.46893975e+15
1.48616116e+15
1.5030598e+15
1.51961638e+15
1.53581115e+15
1.55162387e+15
1.56703387e+15
1.58202004e+15
1.59656086e+15
1.61063442e+15
1.62421846e+15
1.63729042e+15
1.64982747e+15
1.66180656e+15
1.67320455e+15
1.68399819e+15
1.6941643e+15
1.70367981e+15
1.7125219e+15
1.72066806e+15
1.72809622e+15
1.7347848e+15
1.74071274e+15
1.74585946e+15
1.75020472e+15
1.75372842e+15
1.75641032e+15
1.75822948e+15
1.75916437e+15
1.02935254e+14
1.22389841e+14
1.41972946e+14
1.61682955e+14
1.81514392e+14
2.01459966e+14
2.21511841e+14
2.41662419e+14
2.61904744e+14
2.82232682e+14
3.02640952e+14
3.23125088e+14
3.43681354e+14
3.6430665e+14
3.84998411e+14
4.05754521e+14
4.26573226e+14
4.47453062e+14
4.68392802e+14
4.89391396e+14
5.10447936e+14
5.31561616e+14
5.52731704e+14
5.73957515e+14
5.95238391e+14
6.16573678e+14
6.37962712e+14
6.59404798e+14
6.80899194e+14
7.02445095e+14
7.24041618e+14
7.45687779e+14
7.67382482e+14
7.89124493e+14
8.10912428e+14
8.32744728e+14
8.54619638e+14
8.7653519e+14
8.98489176e+14
9.20479131e+14
9.42502305e+14
9.64555644e+14
9.86635762e+14
1.00873893e+15
1.03086102e+15
1.05299754e+15
1.07514356e+15
1.09729369e+15
1.11944209e+15
1.14158242e+15
1.16370782e+15
1.18581087e+15
1.2078836e+15
1.22991738e+15
1.25194737e+15
1.27398715e+15
1.29599893e+15
1.31795457e+15
1.33983164e+15
1.36161105e+15
1.38327552e+15
1.40480866e+15
1.42619436e+15
1.44741649e+15
1.46845862e+15
1.48930393e+15
1.50993509e+15
1.53033421e+15
1.55048285e+15
1.57036195e+15
1.58995187e+15
1.60923235e+15
1.62818255e+15
1.64678103e+15
1.66500577e+15
1.68283419e+15
1.70024316e+15
1.71720906e+15
1.73370774e+15
1.74971465e+15
1.76520479e+15
1.78015284e+15
1.7945332e+15
1.80832005e+15
1.82148746e+15
1.83400951e+15
1.84586036e+15
1.85701444e+15
1.86744656e+15
1.87713206e+15
1.88604696e+15
1.89416809e+15
1.90147316e+15
1.90794077e+15
1.91355039e+15
1.91828208e+15
1.92211617e+15
1.92503279e+15
1.92701108e+15
1.92802915e+15
1.12316665e+14
1.33591345e+14
1.54994927e+14
1.76528907e+14
1.98189816e+14
2.19971452e+14
2.41866328e+14
2.63866637e+14
2.85964834e+14
3.08153948e+14
3.30427728e+14
3.52780683e+14
3.7520806e+14
3.97705784e+14
4.20270387e+14
4.42898928e+14
4.65588919e+14
4.88338259e+14
5.11145169e+14
5.34008142e+14
5.56925895e+14
5.79897329e+14
6.02921497e+14
6.25997571e+14
6.49124818e+14
6.72302576e+14
6.95530228e+14
7.18807187e+14
7.4213287e+14
7.6550668e+14
7.88927984e+14
8.12396092e+14
8.35910234e+14
8.5946954e+14
8.83073013e+14
9.06719503e+14
9.30407687e+14
9.54136037e+14
9.77902796e+14
1.00170595e+15
1.02554319e+15
1.04941191e+15
1.07330913e+15
1.09723153e+15
1.12117536e+15
1.14513645e+15
1.16911014e+15
1.19309132e+15
1.2170743e+15
1.24105287e+15
1.26502021e+15
1.28896888e+15
1.31289075e+15
1.336777e+15
1.36065051e+15
1.3845466e+15
1.40842535e+15
1.43225603e+15
1.45601369e+15
1.47967683e+15
1.50322596e+15
1.52664262e+15
1.54990873e+15
1.57300625e+15
1.59591683e+15
1.61862168e+15
1.64110145e+15
1.66333615e+15
1.68530513e+15
1.706987e+15
1.7283597e+15
1.7494004e+15
1.77008558e+15
1.79039101e+15
1.81029177e+15
1.82976229e+15
1.84877634e+15
1.86730711e+15
1.88532723e+15
1.90280886e+15
1.91972371e+15
1.93604315e+15
1.95173832e+15
1.9667802e+15
1.9811398e+15
1.99478824e+15
2.00769697e+15
2.01983796e+15
2.03118385e+15
2.04170819e+15
2.05138564e+15
2.06019211e+15
2.0681049e+15
2.07510269e+15
2.08116542e+15
2.08627401e+15
2.09040981e+15
2.09355394e+15
2.09568618e+15
2.09678465e+15
1.21769083e+14
1.44885868e+14
1.68130679e+14
1.91507782e+14
2.1501569e+14
2.38649456e+14
2.62402209e+14
2.86266232e+14
3.10233659e+14
3.34296912e+14
3.58448937e+14
3.82683331e+14
4.06994377e+14
4.31377032e+14
4.5582689e+14
4.80340126e+14
5.04913435e+14
5.29543978e+14
5.54229319e+14
5.78967379e+14
6.03756389e+14
6.28594849e+14
6.5348149e+14
6.78415246e+14
7.03395218e+14
7.28420653e+14
7.53490914e+14
7.78605461e+14
8.03763818e+14
8.28965556e+14
8.54210265e+14
8.7949753e+14
9.04826905e+14
9.30197882e+14
9.55609868e+14
9.8106215e+14
1.00655387e+15
1.03208398e+15
1.05765124e+15
1.08325415e+15
1.10889092e+15
1.13455946e+15
1.16025732e+15
1.18598166e+15
1.21172921e+15
1.23749624e+15
1.26327853e+15
1.28907129e+15
1.31486918e+15
1.34066622e+15
1.36645578e+15
1.39223051e+15
1.4179823e+15
1.44370224e+15
1.46939987e+15
1.49513259e+15
1.52085895e+15
1.54654623e+15
1.5721673e+15
1.59769852e+15
1.62311832e+15
1.64840625e+15
1.67354232e+15
1.69850654e+15
1.72327863e+15
1.74783783e+15
1.77216272e+15
1.79623115e+15
1.8200202e+15
1.84350609e+15
1.86666423e+15
1.88946914e+15
1.9118945e+15
1.93391315e+15
1.95549713e+15
1.97661768e+15
1.99724529e+15
2.01734979e+15
2.03690035e+15
2.05586562e+15
2.07421379e+15
2.0919127e+15
2.10892999e+15
2.12523322e+15
2.1407901e+15
2.15556866e+15
2.16953744e+15
2.18266583e+15
2.19492424e+15
2.20628444e+15
2.21671977e+15
2.22620539e+15
2.23471841e+15
2.24223791e+15
2.24874477e+15
2.25422129e+15
2.25865045e+15
2.26201498e+15
2.26429591e+15
2.26547186e+15
1.3129187e+14
1.56272488e+14
1.81379551e+14
2.06619625e+14
2.31993016e+14
2.57496046e+14
2.83122598e+14
3.08865246e+14
3.34716025e+14
3.60666954e+14
3.8671035e+14
4.12839025e+14
4.39046384e+14
4.6532646e+14
4.91673916e+14
5.18084017e+14
5.44552592e+14
5.71075993e+14
5.97651048e+14
6.24275013e+14
6.50945539e+14
6.77660625e+14
7.04418587e+14
7.31218024e+14
7.58057787e+14
7.84936949e+14
8.11854781e+14
8.38810718e+14
8.65804339e+14
8.92835334e+14
9.19903479e+14
9.47008603e+14
9.74150563e+14
1.00132921e+15
1.02854435e+15
1.05579572e+15
1.08308294e+15
1.1104055e+15
1.13776269e+15
1.16515358e+15
1.19257696e+15
1.22003133e+15
1.24751484e+15
1.27502522e+15
1.30255978e+15
1.33011533e+15
1.35768818e+15
1.38527401e+15
1.41286791e+15
1.44046428e+15
1.4680568e+15
1.49563834e+15
1.52320095e+15
1.55073579e+15
1.57823827e+15
1.60578805e+15
1.63334267e+15
1.66086783e+15
1.68833458e+15
1.71571742e+15
1.74299287e+15
1.77013863e+15
1.79713283e+15
1.82395362e+15
1.85057878e+15
1.87698558e+15
1.90315052e+15
1.92904927e+15
1.95465659e+15
1.97994628e+15
2.00489112e+15
2.02946291e+15
2.05363243e+15
2.07736949e+15
2.10064292e+15
2.12342064e+15
2.14566971e+15
2.16735636e+15
2.18844615e+15
2.20890399e+15
2.2286943e+15
2.24778118e+15
2.26612853e+15
2.28370027e+15
2.3004606e+15
2.31637419e+15
2.33140656e+15
2.34552433e+15
2.35869558e+15
2.37089024e+15
2.38208035e+15
2.3922404e+15
2.40134749e+15
2.4093814e+15
2.41632433e+15
2.42216046e+15
2.42687501e+15
2.43045298e+15
2.4328773e+15
2.43412766e+15
1.40884257e+14
1.67749983e+14
1.94740332e+14
2.21863644e+14
2.4912173e+14
2.7651208e+14
3.04029358e+14
3.31666541e+14
3.5941572e+14
3.87268672e+14
4.15217236e+14
4.43253567e+14
4.71370286e+14
4.99560567e+14
5.2781817e+14
5.56137454e+14
5.84513359e+14
6.12941386e+14
6.41417565e+14
6.69938422e+14
6.98500946e+14
7.27102556e+14
7.55741066e+14
7.84414659e+14
8.13121851e+14
8.41861467e+14
8.70632608e+14
8.99434624e+14
9.28267084e+14
9.57129747e+14
9.86022527e+14
1.01494547e+15
1.04389869e+15
1.07288239e+15
1.10189678e+15
1.13094202e+15
1.16001824e+15
1.18912547e+15
1.21826356e+15
1.24743218e+15
1.27663077e+15
1.30585845e+15
1.33511404e+15
1.36439592e+15
1.39370206e+15
1.4230299e+15
1.45237635e+15
1.4817377e+15
1.51110956e+15
1.54048683e+15
1.56986361e+15
1.59923315e+15
1.62858777e+15
1.6579188e+15
1.68720704e+15
1.71655447e+15
1.74591801e+15
1.77526215e+15
1.80455647e+15
1.83377382e+15
1.86288906e+15
1.89187815e+15
1.92071747e+15
1.94938335e+15
1.97785173e+15
2.00609788e+15
2.03409627e+15
2.06182037e+15
2.08924261e+15
2.1163343e+15
2.14306561e+15
2.16940552e+15
2.19532184e+15
2.22078123e+15
2.24574922e+15
2.27019027e+15
2.29406784e+15
2.31734443e+15
2.33998175e+15
2.3619408e+15
2.38318203e+15
2.40366555e+15
2.42335129e+15
2.4421993e+15
2.46017003e+15
2.47722461e+15
2.49332528e+15
2.50843574e+15
2.52252161e+15
2.53555084e+15
2.54749415e+15
2.5583254e+15
2.56802181e+15
2.57656404e+15
2.583936e+15
2.59012418e+15
2.59511662e+15
2.59890126e+15
2.60146367e+15
2.60278523e+15
1.50545363e+14
1.79316902e+14
2.0821138e+14
2.37238381e+14
2.66400878e+14
2.95697343e+14
3.2512317e+14
3.54671766e+14
3.84335363e+14
4.14105608e+14
4.43973977e+14
4.73932077e+14
5.03971834e+14
5.34085628e+14
5.64266359e+14
5.94507497e+14
6.2480309e+14
6.55147766e+14
6.85536719e+14
7.15965694e+14
7.46430958e+14
7.76929283e+14
8.07457912e+14
8.38014538e+14
8.68597271e+14
8.99204614e+14
9.29835434e+14
9.60488931e+14
9.91164605e+14
1.02186223e+15
1.05258181e+15
1.08332356e+15
1.11408786e+15
1.14487519e+15
1.17568614e+15
1.20652134e+15
1.23738139e+15
1.26826686e+15
1.29917819e+15
1.3301157e+15
1.36107946e+15
1.39206931e+15
1.42308474e+15
1.45412488e+15
1.48518839e+15
1.51627344e+15
1.54737763e+15
1.57849793e+15
1.6096306e+15
1.64077112e+15
1.67191413e+15
1.70305337e+15
1.73418155e+15
1.76529032e+15
1.79634545e+15
1.82747134e+15
1.85862457e+15
1.88976874e+15
1.92087223e+15
1.95190653e+15
1.98284501e+15
2.01366208e+15
2.04433247e+15
2.07483081e+15
2.10513123e+15
2.13520712e+15
2.1650309e+15
2.19457387e+15
2.22380615e+15
2.25269656e+15
2.28121259e+15
2.30932037e+15
2.33698469e+15
2.36416899e+15
2.3908354e+15
2.41694481e+15
2.44245692e+15
2.46733038e+15
2.49152288e+15
2.51499131e+15
2.53769195e+15
2.55958069e+15
2.58061331e+15
2.60074572e+15
2.6199344e+15
2.6381367e+15
2.65531137e+15
2.67141899e+15
2.68642253e+15
2.70028785e+15
2.71298426e+15
2.72448494e+15
2.73476729e+15
2.74381305e+15
2.75160805e+15
2.75814156e+15
2.76340494e+15
2.76738979e+15
2.77008501e+15
2.77147445e+15
1.6027421e+14
1.90971618e+14
2.21790724e+14
2.52741848e+14
2.83828759e+14
3.15050684e+14
3.46403623e+14
3.7788138e+14
4.09476346e+14
4.41180094e+14
4.72983815e+14
5.04878642e+14
5.36855879e+14
5.68907168e+14
6.01024595e+14
6.33200764e+14
6.65428838e+14
6.97702564e+14
7.30016278e+14
7.62364907e+14
7.94743956e+14
8.27149495e+14
8.59578141e+14
8.92027036e+14
9.24493825e+14
9.56976626e+14
9.89474012e+14
1.02198497e+15
1.05450889e+15
1.08704549e+15
1.11959483e+15
1.15215726e+15
1.18473336e+15
1.21732389e+15
1.24992981e+15
1.28255215e+15
1.31519201e+15
1.34785049e+15
1.38052865e+15
1.41322743e+15
1.4459476e+15
1.4786897e+15
1.51145398e+15
1.54424033e+15
1.57704818e+15
1.60987649e+15
1.64272363e+15
1.67558731e+15
1.70846452e+15
1.74135145e+15
1.77424337e+15
1.8071346e+15
1.84001838e+15
1.87288679e+15
1.90569028e+15
1.93857571e+15
1.97149957e+15
2.00442485e+15
2.03731901e+15
2.07015237e+15
2.10289704e+15
2.13552603e+15
2.16801259e+15
2.20032975e+15
2.23244994e+15
2.26434471e+15
2.29598449e+15
2.32733848e+15
2.35837448e+15
2.38905883e+15
2.41935635e+15
2.44923031e+15
2.47864241e+15
2.50755282e+15
2.5359202e+15
2.56370177e+15
2.59085339e+15
2.61732968e+15
2.64308418e+15
2.66806951e+15
2.69223758e+15
2.71553988e+15
2.73792778e+15
2.75935288e+15
2.77976742e+15
2.79912476e+15
2.81737992e+15
2.83449015e+15
2.85041555e+15
2.86511974e+15
2.87857047e+15
2.89074019e+15
2.90160647e+15
2.91115222e+15
2.91936542e+15
2.92623842e+15
2.93176645e+15
2.93594536e+15
2.93876823e+15
2.94022215e+15
1.7006973e+14
2.02712359e+14
2.35476132e+14
2.6837163e+14
3.01403058e+14
3.34570142e+14
3.67869325e+14
4.01294716e+14
4.34838832e+14
4.68493179e+14
5.0224869e+14
5.36096069e+14
5.70026043e+14
6.04029562e+14
6.38097927e+14
6.72222902e+14
7.06396777e+14
7.40612415e+14
7.74863285e+14
8.09143473e+14
8.43447689e+14
8.77771268e+14
9.12110154e+14
9.46460892e+14
9.80820609e+14
1.01518699e+15
1.04955826e+15
1.08393315e+15
1.11831086e+15
1.15269106e+15
1.18707379e+15
1.22145948e+15
1.25584889e+15
1.29024304e+15
1.32464322e+15
1.35905084e+15
1.3934675e+15
1.42789483e+15
1.46233447e+15
1.49678802e+15
1.53125696e+15
1.56574256e+15
1.60024584e+15
1.63476748e+15
1.66930777e+15
1.70386646e+15
1.73844277e+15
1.77303524e+15
1.80764166e+15
1.84225898e+15
1.87688324e+15
1.91150942e+15
1.94613139e+15
1.98074177e+15
2.01527546e+15
2.04990187e+15
2.08457757e+15
2.11926519e+15
2.15393146e+15
2.18854582e+15
2.22307928e+15
2.25750363e+15
2.29179078e+15
2.32591229e+15
2.359839e+15
2.3935407e+15
2.42698593e+15
2.46014181e+15
2.49297388e+15
2.52544603e+15
2.55752042e+15
2.58915744e+15
2.62031571e+15
2.65095207e+15
2.68102167e+15
2.71047797e+15
2.73927289e+15
2.76735694e+15
2.79467936e+15
2.82118833e+15
2.84683125e+15
2.87155502e+15
2.89530639e+15
2.91803243e+15
2.93968092e+15
2.960201e+15
2.97954373e+15
2.99766278e+15
3.01451521e+15
3.03006216e+15
3.04426966e+15
3.05710932e+15
3.06855884e+15
3.07860229e+15
3.08722995e+15
3.09443756e+15
3.10022463e+15
3.10459191e+15
3.10753742e+15
3.10905237e+15
1.79930772e+14
2.14537236e+14
2.49265161e+14
2.84124963e+14
3.19120943e+14
3.5425306e+14
3.89518006e+14
4.24910064e+14
4.60421801e+14
4.96044614e+14
5.31769168e+14
5.67585745e+14
6.03484513e+14
6.39455749e+14
6.75489995e+14
7.11578186e+14
7.47711751e+14
7.83882672e+14
8.20083542e+14
8.56307596e+14
8.92548729e+14
9.28801511e+14
9.65061183e+14
1.00132366e+15
1.03758551e+15
1.07384394e+15
1.11009679e+15
1.14634248e+15
1.18258002e+15
1.21880891e+15
1.2550292e+15
1.29124135e+15
1.32744626e+15
1.36364518e+15
1.39983967e+15
1.43603157e+15
1.4722229e+15
1.50841583e+15
1.54461258e+15
1.58081542e+15
1.6170265e+15
1.65324788e+15
1.68948135e+15
1.72572845e+15
1.76199028e+15
1.79826751e+15
1.83456022e+15
1.87086784e+15
1.90718903e+15
1.9435216e+15
1.97986239e+15
2.01620717e+15
2.05255052e+15
2.08888572e+15
2.12513191e+15
2.16148114e+15
2.19789023e+15
2.23432162e+15
2.27074157e+15
2.3071188e+15
2.34342343e+15
2.3796262e+15
2.41569783e+15
2.45160856e+15
2.48732773e+15
2.52282349e+15
2.55806258e+15
2.59301011e+15
2.62762941e+15
2.66188197e+15
2.69572731e+15
2.72912297e+15
2.76202445e+15
2.7943853e+15
2.82615706e+15
2.85728941e+15
2.88773028e+15
2.91742593e+15
2.9463212e+15
2.97435972e+15
3.00148421e+15
3.0276368e+15
3.05275948e+15
3.07679451e+15
3.09968507e+15
3.12137581e+15
3.1418136e+15
3.16094833e+15
3.17873373e+15
3.19512828e+15
3.21009611e+15
3.22360779e+15
3.23564105e+15
3.24618112e+15
3.25522065e+15
3.26275894e+15
3.2688002e+15
3.27335065e+15
3.27641402e+15
3.27798654e+15
1.89856112e+14
2.26444258e+14
2.63155196e+14
2.99998803e+14
3.36979153e+14
3.7409618e+14
4.11346615e+14
4.4872476e+14
4.86223112e+14
5.23832886e+14
5.61544427e+14
5.99347571e+14
6.37231916e+14
6.75187064e+14
7.13202799e+14
7.51269238e+14
7.89376948e+14
8.27517032e+14
8.65681208e+14
9.03861846e+14
9.42052016e+14
9.80245505e+14
1.01843683e+15
1.05662125e+15
1.09479474e+15
1.13295401e+15
1.17109647e+15
1.20922021e+15
1.24732397e+15
1.28540712e+15
1.32346961e+15
1.36151195e+15
1.39953512e+15
1.43754057e+15
1.47553014e+15
1.51350603e+15
1.55147069e+15
1.5894268e+15
1.62737717e+15
1.66532469e+15
1.70327226e+15
1.74122266e+15
1.77917851e+15
1.81714219e+15
1.85511569e+15
1.89310059e+15
1.93109789e+15
1.96910795e+15
2.00713037e+15
2.04516387e+15
2.08320618e+15
2.12125393e+15
2.15930251e+15
2.19734593e+15
2.23536965e+15
2.27340318e+15
2.31151151e+15
2.34965614e+15
2.38780224e+15
2.42591733e+15
2.46397031e+15
2.5019306e+15
2.53976756e+15
2.57744995e+15
2.61494557e+15
2.65222087e+15
2.68924075e+15
2.72596832e+15
2.76236471e+15
2.79838902e+15
2.83399814e+15
2.86914674e+15
2.90378725e+15
2.93786986e+15
2.97134252e+15
3.00415109e+15
3.03623939e+15
3.06754942e+15
3.09802151e+15
3.12759461e+15
3.15620664e+15
3.18379481e+15
3.21029613e+15
3.23564795e+15
3.25978858e+15
3.28265797e+15
3.30419859e+15
3.32435629e+15
3.34308125e+15
3.36032906e+15
3.3760617e+15
3.39024856e+15
3.40286721e+15
3.41390397e+15
3.42335386e+15
3.4312199e+15
3.43751128e+15
3.44224023e+15
3.44541695e+15
3.44704363e+15
1.9984445e+14
2.38431345e+14
2.77143479e+14
3.15989864e+14
3.54974063e+14
3.94095728e+14
4.33351418e+14
4.72735274e+14
5.12239587e+14
5.51855276e+14
5.91572291e+14
6.3137996e+14
6.71267276e+14
7.11223143e+14
7.5123657e+14
7.9129685e+14
8.31393684e+14
8.71517294e+14
9.11658514e+14
9.5180885e+14
9.91960536e+14
1.03210656e+15
1.07224072e+15
1.11235757e+15
1.1524525e+15
1.19252169e+15
1.2325621e+15
1.27257144e+15
1.3125482e+15
1.35249154e+15
1.39240132e+15
1.43227803e+15
1.47212274e+15
1.51193706e+15
1.55172308e+15
1.59148334e+15
1.63122069e+15
1.67093832e+15
1.71063961e+15
1.75032808e+15
1.79000733e+15
1.8296809e+15
1.86935223e+15
1.90902456e+15
1.9487008e+15
1.98838343e+15
2.02807444e+15
2.06777515e+15
2.10748614e+15
2.1472071e+15
2.18693672e+15
2.22667256e+15
2.26641088e+15
2.30614653e+15
2.3458728e+15
2.38558951e+15
2.42539181e+15
2.46524105e+15
2.50510207e+15
2.54494195e+15
2.58472895e+15
2.62443173e+15
2.66401874e+15
2.70345766e+15
2.74271503e+15
2.78175588e+15
2.82054346e+15
2.85903902e+15
2.89720166e+15
2.93498814e+15
2.97235282e+15
3.00924757e+15
3.04562174e+15
3.0814222e+15
3.11659331e+15
3.15107706e+15
3.18481318e+15
3.21773928e+15
3.24979115e+15
3.28090296e+15
3.31100769e+15
3.3400375e+15
3.3679243e+15
3.39460031e+15
3.41999877e+15
3.44405477e+15
3.46670613e+15
3.48789441e+15
3.50756603e+15
3.52567341e+15
3.54217619e+15
3.55704231e+15
3.57024905e+15
3.58178364e+15
3.59164344e+15
3.59983526e+15
3.60637352e+15
3.6112769e+15
3.61456279e+15
3.6162403e+15
2.09894416e+14
2.50496337e+14
2.91227131e+14
3.32094668e+14
3.73101741e+14
4.14247488e+14
4.55528079e+14
4.9693731e+14
5.38467101e+14
5.80107946e+14
6.21849291e+14
6.63679879e+14
7.0558803e+14
7.47561907e+14
7.89589716e+14
8.316599e+14
8.73761283e+14
9.15883197e+14
9.58015587e+14
1.00014909e+15
1.04227509e+15
1.08438579e+15
1.12647423e+15
1.16853429e+15
1.21056073e+15
1.25254918e+15
1.29449615e+15
1.33639896e+15
1.3782558e+15
1.42006562e+15
1.46182816e+15
1.50354386e+15
1.54521386e+15
1.5868399e+15
1.62842431e+15
1.66996993e+15
1.71148001e+15
1.75295821e+15
1.79440846e+15
1.83583492e+15
1.87724186e+15
1.9186336e+15
1.9600144e+15
2.00138835e+15
2.04275927e+15
2.08413063e+15
2.12550537e+15
2.16688583e+15
2.2082736e+15
2.2496694e+15
2.29107293e+15
2.33248272e+15
2.37389601e+15
2.41530855e+15
2.45671447e+15
2.49809932e+15
2.53957956e+15
2.58111675e+15
2.62267569e+15
2.66422319e+15
2.7057271e+15
2.74715548e+15
2.78847601e+15
2.82965543e+15
2.87065916e+15
2.91145093e+15
2.95199246e+15
2.99224329e+15
3.03216054e+15
3.07169876e+15
3.11080984e+15
3.14944292e+15
3.18754433e+15
3.22505763e+15
3.26192361e+15
3.2980804e+15
3.3334636e+15
3.36800643e+15
3.40164004e+15
3.43429375e+15
3.4658955e+15
3.49637231e+15
3.52565081e+15
3.55365794e+15
3.58032172e+15
3.60557213e+15
3.62934215e+15
3.65156883e+15
3.67219456e+15
3.69116839e+15
3.70844732e+15
3.72399764e+15
3.73779608e+15
3.74983065e+15
3.76010092e+15
3.76861751e+15
3.77540023e+15
3.7804746e+15
3.78386586e+15
3.78559098e+15
2.20004572e+14
2.62637004e+14
3.05403166e+14
3.48309564e+14
3.91357994e+14
4.3454686e+14
4.77871737e+14
5.21325879e+14
5.64900667e+14
6.08586019e+14
6.52370751e+14
6.96242913e+14
7.40190076e+14
7.84199595e+14
8.28258828e+14
8.72355334e+14
9.16477037e+14
9.60612361e+14
1.00475035e+15
1.04888078e+15
1.09299417e+15
1.13708194e+15
1.18113635e+15
1.22515062e+15
1.26911887e+15
1.31303619e+15
1.35689858e+15
1.40070301e+15
1.44444731e+15
1.48813024e+15
1.53175136e+15
1.57531108e+15
1.61881056e+15
1.66225167e+15
1.70563693e+15
1.74896947e+15
1.79225293e+15
1.83549141e+15
1.87868939e+15
1.92185162e+15
1.96498307e+15
2.0080888e+15
2.05117388e+15
2.09424327e+15
2.13730174e+15
2.18035368e+15
2.22340306e+15
2.26645325e+15
2.30950689e+15
2.35256576e+15
2.3956306e+15
2.43870101e+15
2.48177522e+15
2.52484998e+15
2.56792033e+15
2.61095735e+15
2.65409893e+15
2.69730701e+15
2.74054651e+15
2.78378415e+15
2.82698751e+15
2.87012421e+15
2.91316129e+15
2.95606472e+15
2.99879892e+15
3.04132642e+15
3.08360758e+15
3.12560029e+15
3.1672598e+15
3.20853855e+15
3.24938603e+15
3.28974871e+15
3.32956996e+15
3.36879009e+15
3.40734635e+15
3.44517301e+15
3.48220153e+15
3.51836072e+15
3.55357705e+15
3.58777494e+15
3.62087722e+15
3.65280561e+15
3.68348139e+15
3.71282606e+15
3.74076225e+15
3.76721466e+15
3.79211119e+15
3.81538417e+15
3.83697176e+15
3.85681932e+15
3.874881e+15
3.89112116e+15
3.90551577e+15
3.91805338e+15
3.92873565e+15
3.93757692e+15
3.9446025e+15
3.94984506e+15
3.9533383e+15
3.95510795e+15
2.30173411e+14
2.74851045e+14
3.19668509e+14
3.64630759e+14
4.09738407e+14
4.54988917e+14
5.00377072e+14
5.45895392e+14
5.91534536e+14
6.37283683e+14
6.83130879e+14
7.29063365e+14
7.75067861e+14
8.21130837e+14
8.67238742e+14
9.13378206e+14
9.59536221e+14
1.00570029e+15
1.05185854e+15
1.09799984e+15
1.14411391e+15
1.19019132e+15
1.23622361e+15
1.28220329e+15
1.32812385e+15
1.37397983e+15
1.41976676e+15
1.46548118e+15
1.51112062e+15
1.55668357e+15
1.60216945e+15
1.6475786e+15
1.69291218e+15
1.73817215e+15
1.78336124e+15
1.82848283e+15
1.87354092e+15
1.91854005e+15
1.96348519e+15
2.00838171e+15
2.05323524e+15
2.09805157e+15
2.14283658e+15
2.1875961e+15
2.23233581e+15
2.27706109e+15
2.32177691e+15
2.36648769e+15
2.41119715e+15
2.45590815e+15
2.50062254e+15
2.545341e+15
2.59006284e+15
2.63478585e+15
2.67950606e+15