/*--------------------------------*- C++ -*----------------------------------*\
| =========                 |                                                 |
| \\      /  F ield         | OpenFOAM Extend Project: Open source CFD        |
|  \\    /   O peration     | Version:  1.6-ext                               |
|   \\  /    A nd           | Web:      www.extend-project.de                 |
|    \\/     M anipulation  |                                                 |
\*---------------------------------------------------------------------------*/
FoamFile
{
    version     2.0;
    format      ascii;
    class       volScalarField;
    location    "4000";
    object      prec8_adj;
}
// * * * * * * * * * * * * * * * * * * * * * * * * * * * * * * * * * * * * * //

dimensions      [0 -2 -1 0 0 0 0];

internalField   nonuniform List<scalar> 
40000
(
2.06622982e+16
2.44121222e+16
2.81920981e+16
3.20040245e+16
3.5848755e+16
3.97273111e+16
4.36363116e+16
4.75765945e+16
5.15477167e+16
5.55491944e+16
5.9580514e+16
6.36411378e+16
6.77305081e+16
7.18480494e+16
7.59931691e+16
8.01652581e+16
8.43636906e+16
8.85878235e+16
9.28369953e+16
9.71105257e+16
1.01407714e+17
1.05727837e+17
1.10070151e+17
1.14433888e+17
1.18818252e+17
1.23222424e+17
1.27645557e+17
1.32086775e+17
1.36545171e+17
1.41019808e+17
1.45509717e+17
1.50013898e+17
1.54531312e+17
1.5906089e+17
1.63601523e+17
1.68152067e+17
1.7271134e+17
1.77278118e+17
1.81851142e+17
1.86429107e+17
1.91010669e+17
1.95594439e+17
2.00178986e+17
2.04762833e+17
2.09344457e+17
2.13922289e+17
2.1849471e+17
2.23060055e+17
2.27616607e+17
2.32162597e+17
2.36696208e+17
2.41215574e+17
2.45718894e+17
2.5020637e+17
2.54674957e+17
2.59121221e+17
2.6354299e+17
2.6793803e+17
2.72304043e+17
2.76638663e+17
2.80939461e+17
2.85203937e+17
2.89429525e+17
2.93613588e+17
2.97753418e+17
3.01846235e+17
3.05889184e+17
3.09879336e+17
3.13813682e+17
3.17689136e+17
3.21502531e+17
3.25250616e+17
3.28930059e+17
3.32537437e+17
3.36069242e+17
3.39521875e+17
3.42891643e+17
3.4617476e+17
3.49367342e+17
3.52465405e+17
3.55464863e+17
3.58361528e+17
3.61151101e+17
3.63829176e+17
3.66391234e+17
3.68832641e+17
3.71148645e+17
3.73334378e+17
3.75384849e+17
3.77294951e+17
3.79059454e+17
3.80673017e+17
3.82130186e+17
3.83425407e+17
3.84553035e+17
3.85507348e+17
3.86282566e+17
3.86872859e+17
3.87272378e+17
3.87475231e+17
2.44134345e+16
2.88752167e+16
3.33720279e+16
3.7911255e+16
4.24881593e+16
4.71035358e+16
5.17575031e+16
5.64496845e+16
6.11795735e+16
6.5946574e+16
7.07500253e+16
7.55892194e+16
8.04634118e+16
8.53718287e+16
9.03136712e+16
9.52881177e+16
1.00294325e+17
1.05331431e+17
1.10398549e+17
1.15494774e+17
1.20619176e+17
1.25770804e+17
1.30948679e+17
1.36151799e+17
1.41379133e+17
1.46629623e+17
1.5190218e+17
1.57195686e+17
1.62508988e+17
1.67840904e+17
1.73190215e+17
1.78555667e+17
1.83935971e+17
1.89329798e+17
1.94735783e+17
2.00152521e+17
2.05578565e+17
2.11012428e+17
2.16452579e+17
2.21897444e+17
2.27345403e+17
2.32794791e+17
2.38243894e+17
2.43690952e+17
2.49134154e+17
2.54571636e+17
2.60001485e+17
2.65421732e+17
2.70830355e+17
2.76225276e+17
2.81604371e+17
2.86965535e+17
2.92307102e+17
2.9763064e+17
3.02934974e+17
3.08211775e+17
3.13458485e+17
3.18672473e+17
3.23851035e+17
3.28991395e+17
3.340907e+17
3.3914602e+17
3.4415435e+17
3.49112603e+17
3.54017612e+17
3.58866129e+17
3.63654821e+17
3.68380266e+17
3.73038957e+17
3.77627296e+17
3.8214159e+17
3.86578055e+17
3.90932805e+17
3.95201859e+17
3.99381131e+17
4.03466429e+17
4.07453455e+17
4.113378e+17
4.15114938e+17
4.18780228e+17
4.22328907e+17
4.25756085e+17
4.29056745e+17
4.32225732e+17
4.35257756e+17
4.38147382e+17
4.40889027e+17
4.43476955e+17
4.45905272e+17
4.48167927e+17
4.50258707e+17
4.52171237e+17
4.53898991e+17
4.55435295e+17
4.56773343e+17
4.5790622e+17
4.58826923e+17
4.59528386e+17
4.60003526e+17
4.60245198e+17
2.81952442e+16
3.33747993e+16
3.86008822e+16
4.3869215e+16
4.91822992e+16
5.45405302e+16
5.99439483e+16
6.53923171e+16
7.08851923e+16
7.64219742e+16
8.20019471e+16
8.76243077e+16
9.32881848e+16
9.8992654e+16
1.04736747e+17
1.10519457e+17
1.16339746e+17
1.22196545e+17
1.28088754e+17
1.34015247e+17
1.39974868e+17
1.45966433e+17
1.51988726e+17
1.58040504e+17
1.64120488e+17
1.70227371e+17
1.76359808e+17
1.82516421e+17
1.88695797e+17
1.94896484e+17
2.01116993e+17
2.07355796e+17
2.13611323e+17
2.19881965e+17
2.2616607e+17
2.32461944e+17
2.38767847e+17
2.45081995e+17
2.51402558e+17
2.57727656e+17
2.64055365e+17
2.70383708e+17
2.76710659e+17
2.83034138e+17
2.89352013e+17
2.95662096e+17
3.01962146e+17
3.0824986e+17
3.14522882e+17
3.20778803e+17
3.27015189e+17
3.33229717e+17
3.39420739e+17
3.45589845e+17
3.51740274e+17
3.57857575e+17
3.63938787e+17
3.69980871e+17
3.75980708e+17
3.81935099e+17
3.87840764e+17
3.9369434e+17
3.9949238e+17
4.05231351e+17
4.10907634e+17
4.16517518e+17
4.22057203e+17
4.27522792e+17
4.32910294e+17
4.38215619e+17
4.43434576e+17
4.48562868e+17
4.53596093e+17
4.58529737e+17
4.63359172e+17
4.68079653e+17
4.72686315e+17
4.77174165e+17
4.81538079e+17
4.85772799e+17
4.89872926e+17
4.93832911e+17
4.97647052e+17
5.01309485e+17
5.04814176e+17
5.08154913e+17
5.11325294e+17
5.14318723e+17
5.17128397e+17
5.19747301e+17
5.22168199e+17
5.24383636e+17
5.26385939e+17
5.28167229e+17
5.29719435e+17
5.31034328e+17
5.32103561e+17
5.329187e+17
5.33471303e+17
5.33752868e+17
3.20084355e+16
3.79155939e+16
4.3870855e+16
4.98754127e+16
5.5930557e+16
6.20369301e+16
6.81948136e+16
7.44041694e+16
8.06646934e+16
8.69758668e+16
9.33370001e+16
9.97472677e+16
1.06205736e+17
1.12711385e+17
1.1926312e+17
1.25859791e+17
1.3250019e+17
1.39183066e+17
1.45907125e+17
1.52671032e+17
1.59473412e+17
1.66312854e+17
1.73187906e+17
1.8009708e+17
1.87038848e+17
1.94011642e+17
2.01013854e+17
2.08043834e+17
2.15099889e+17
2.22180286e+17
2.29283244e+17
2.36406941e+17
2.43549506e+17
2.50709024e+17
2.57883532e+17
2.65071019e+17
2.72269425e+17
2.79476639e+17
2.86690502e+17
2.93908802e+17
3.01129274e+17
3.08349601e+17
3.15567409e+17
3.22780269e+17
3.29985697e+17
3.37181148e+17
3.44364019e+17
3.51531647e+17
3.58681314e+17
3.65810257e+17
3.72915718e+17
3.79995108e+17
3.87046599e+17
3.94071169e+17
4.01078127e+17
4.08046007e+17
4.14971427e+17
4.21850925e+17
4.28680953e+17
4.35457881e+17
4.42177994e+17
4.48837489e+17
4.55432476e+17
4.61958976e+17
4.68412917e+17
4.74790135e+17
4.81086369e+17
4.8729726e+17
4.9341835e+17
4.99445073e+17
5.05372759e+17
5.11196626e+17
5.1691178e+17
5.22513206e+17
5.27995767e+17
5.33354198e+17
5.38583103e+17
5.43676945e+17
5.4863004e+17
5.53436554e+17
5.58090489e+17
5.62585676e+17
5.66915766e+17
5.71074217e+17
5.75054279e+17
5.78848986e+17
5.82451133e+17
5.8585327e+17
5.89047679e+17
5.92026362e+17
5.94781033e+17
5.97303107e+17
5.99583702e+17
6.01613652e+17
6.03383528e+17
6.0488368e+17
6.06104298e+17
6.07035464e+17
6.07667263e+17
6.07989736e+17
3.58533154e+16
4.24909281e+16
4.91818021e+16
5.59281371e+16
6.27309145e+16
6.95908926e+16
7.65085367e+16
8.34840031e+16
9.05171589e+16
9.7607617e+16
1.04754773e+17
1.11957842e+17
1.19215887e+17
1.26527844e+17
1.33892544e+17
1.4130873e+17
1.48775065e+17
1.56290145e+17
1.63852502e+17
1.71460613e+17
1.791129e+17
1.86807732e+17
1.9454343e+17
2.02318264e+17
2.10130453e+17
2.17978168e+17
2.2585953e+17
2.33772607e+17
2.41715419e+17
2.49685934e+17
2.57682067e+17
2.65701681e+17
2.73742585e+17
2.81802538e+17
2.89879241e+17
2.97970343e+17
3.06073438e+17
3.14186062e+17
3.22305699e+17
3.30429773e+17
3.38555651e+17
3.46680645e+17
3.54802003e+17
3.62916918e+17
3.71022518e+17
3.79115874e+17
3.87193991e+17
3.95253816e+17
4.03292243e+17
4.11306128e+17
4.19292353e+17
4.27247999e+17
4.35170869e+17
4.43061041e+17
4.50935011e+17
4.58763625e+17
4.66543064e+17
4.74269427e+17
4.81938725e+17
4.89546885e+17
4.97089746e+17
5.04563058e+17
5.11962485e+17
5.19283597e+17
5.26521873e+17
5.33672697e+17
5.40731356e+17
5.47693036e+17
5.54552823e+17
5.61305692e+17
5.67946514e+17
5.74470042e+17
5.80870911e+17
5.87143634e+17
5.93282595e+17
5.99282039e+17
6.05136072e+17
6.10838648e+17
6.1638356e+17
6.21764432e+17
6.26974706e+17
6.32007629e+17
6.36856236e+17
6.41513338e+17
6.45971499e+17
6.50223018e+17
6.54259905e+17
6.58073859e+17
6.61656246e+17
6.64998074e+17
6.68089976e+17
6.70922199e+17
6.73484596e+17
6.75766646e+17
6.77757475e+17
6.79445917e+17
6.80820591e+17
6.81869987e+17
6.82582609e+17
6.82946951e+17
3.97302093e+16
4.71006424e+16
5.45322445e+16
6.20255675e+16
6.9581369e+16
7.72003807e+16
8.488316e+16
9.26300125e+16
1.00440969e+17
1.08315793e+17
1.16254001e+17
1.24254891e+17
1.32317572e+17
1.40440986e+17
1.48623936e+17
1.56865098e+17
1.65163045e+17
1.7351625e+17
1.81923103e+17
1.90381915e+17
1.98890923e+17
2.07448293e+17
2.16052127e+17
2.2470046e+17
2.33391265e+17
2.42122448e+17
2.50891858e+17
2.59697278e+17
2.68536429e+17
2.77406972e+17
2.86306502e+17
2.95232555e+17
3.04182604e+17
3.13154059e+17
3.22144267e+17
3.31150515e+17
3.40170026e+17
3.4919996e+17
3.58237415e+17
3.67279426e+17
3.76322966e+17
3.85364943e+17
3.94402202e+17
4.03431523e+17
4.12449625e+17
4.21453158e+17
4.30438713e+17
4.39402819e+17
4.48341961e+17
4.57252604e+17
4.66131282e+17
4.74974807e+17
4.83780837e+17
4.92549383e+17
5.01296791e+17
5.09996324e+17
5.18639653e+17
5.27222421e+17
5.35740185e+17
5.44188416e+17
5.52562496e+17
5.60857723e+17
5.69069303e+17
5.77192356e+17
5.85221909e+17
5.93152895e+17
6.00980153e+17
6.08698422e+17
6.1630234e+17
6.23786439e+17
6.31145141e+17
6.38372753e+17
6.45463464e+17
6.52411335e+17
6.59210293e+17
6.65854126e+17
6.72336471e+17
6.78650801e+17
6.8479042e+17
6.90748444e+17
6.96517786e+17
7.02091139e+17
7.07460957e+17
7.12619431e+17
7.17558462e+17
7.22269636e+17
7.26744192e+17
7.30972989e+17
7.34946473e+17
7.3865465e+17
7.42087052e+17
7.45232721e+17
7.48080203e+17
7.50617557e+17
7.52832396e+17
7.54711948e+17
7.56243168e+17
7.57412852e+17
7.58207825e+17
7.58614946e+17
4.36359447e+16
5.17442197e+16
5.9920971e+16
6.81661166e+16
7.64800511e+16
8.48633515e+16
9.33165674e+16
1.01840088e+17
1.10434073e+17
1.19098429e+17
1.27832807e+17
1.36636616e+17
1.45509044e+17
1.5444908e+17
1.63455535e+17
1.72527063e+17
1.81662178e+17
1.90859271e+17
2.00116614e+17
2.0943238e+17
2.18804642e+17
2.28231382e+17
2.37710497e+17
2.47239798e+17
2.56817015e+17
2.66439799e+17
2.76105723e+17
2.85812283e+17
2.95556897e+17
3.0533691e+17
3.1514959e+17
3.24992131e+17
3.34861654e+17
3.44755206e+17
3.54669762e+17
3.64602226e+17
3.74549427e+17
3.84508128e+17
3.94475017e+17
4.04446716e+17
4.14419773e+17
4.24390671e+17
4.34355822e+17
4.44311568e+17
4.54254186e+17
4.64179885e+17
4.74084812e+17
4.83965062e+17
4.93816697e+17
5.03635796e+17
5.13418579e+17
5.23161697e+17
5.3286292e+17
5.42522838e+17
5.52148992e+17
5.61729615e+17
5.7124672e+17
5.80695481e+17
5.90070983e+17
5.99368226e+17
6.08582129e+17
6.17707522e+17
6.26739152e+17
6.35671681e+17
6.44499681e+17
6.53217635e+17
6.61819936e+17
6.70300879e+17
6.78654663e+17
6.86875383e+17
6.94957029e+17
7.02893477e+17
7.10678482e+17
7.18305676e+17
7.25768553e+17
7.33060465e+17
7.40174603e+17
7.47103993e+17
7.53841472e+17
7.60379679e+17
7.66711026e+17
7.72827683e+17
7.78721548e+17
7.84384216e+17
7.89806951e+17
7.94980644e+17
7.99895776e+17
8.04542373e+17
8.08909968e+17
8.12987553e+17
8.16763545e+17
8.20225757e+17
8.23361386e+17
8.26157027e+17
8.28598711e+17
8.30671991e+17
8.32362072e+17
8.33653963e+17
8.34532719e+17
8.34983478e+17
4.75712608e+16
5.64210124e+16
6.53469851e+16
7.4348424e+16
8.34252755e+16
9.25778633e+16
1.01806638e+17
1.11112001e+17
1.20494193e+17
1.2995324e+17
1.3948892e+17
1.49100765e+17
1.58788063e+17
1.68549876e+17
1.78385059e+17
1.88292277e+17
1.98270021e+17
2.08316626e+17
2.18430283e+17
2.28609049e+17
2.38850858e+17
2.49153529e+17
2.59514768e+17
2.69932176e+17
2.80403251e+17
2.90925394e+17
3.01495906e+17
3.12111994e+17
3.22770774e+17
3.33469268e+17
3.44204408e+17
3.54973037e+17
3.65771913e+17
3.76597706e+17
3.87447002e+17
3.98316302e+17
4.09202027e+17
4.20100518e+17
4.31008033e+17
4.41920755e+17
4.52834787e+17
4.6374616e+17
4.74650826e+17
4.85544665e+17
4.96423487e+17
5.07283031e+17
5.18118978e+17
5.28926958e+17
5.3970258e+17
5.50441495e+17
5.61139529e+17
5.71792979e+17
5.82399286e+17
5.92958551e+17
6.03476991e+17
6.13948825e+17
6.24349573e+17
6.34673919e+17
6.44916464e+17
6.55071726e+17
6.65134143e+17
6.75098072e+17
6.84957792e+17
6.94707499e+17
7.04341307e+17
7.13853248e+17
7.23237267e+17
7.32487219e+17
7.4159687e+17
7.50559885e+17
7.5936983e+17
7.68020161e+17
7.76504218e+17
7.84815216e+17
7.92946236e+17
8.00890212e+17
8.08639916e+17
8.16187944e+17
8.23526695e+17
8.30648351e+17
8.37544852e+17
8.44207868e+17
8.50628763e+17
8.56798562e+17
8.62707908e+17
8.68347016e+17
8.73705621e+17
8.78772928e+17
8.83537556e+17
8.87987481e+17
8.92109995e+17
8.9589166e+17
8.99318298e+17
9.02374996e+17
9.05046155e+17
9.07315588e+17
9.09166676e+17
9.10582562e+17
9.11546441e+17
9.12041648e+17
5.15357656e+16
6.11304604e+16
7.0809449e+16
8.05713233e+16
9.04155461e+16
1.00342124e+17
1.10351335e+17
1.20443527e+17
1.30618972e+17
1.40877778e+17
1.51219836e+17
1.61644793e+17
1.7215205e+17
1.8274076e+17
1.93409845e+17
2.04158008e+17
2.14983746e+17
2.25885369e+17
2.36861012e+17
2.47908646e+17
2.59026087e+17
2.70211011e+17
2.81460952e+17
2.92773315e+17
3.0414538e+17
3.15574301e+17
3.27057117e+17
3.38590748e+17
3.50172005e+17
3.61797587e+17
3.73464083e+17
3.8516798e+17
3.9690566e+17
4.08673405e+17
4.20467397e+17
4.32283723e+17
4.44118375e+17
4.55967253e+17
4.67826167e+17
4.79690839e+17
4.91556906e+17
5.03419921e+17
5.15275355e+17
5.27118601e+17
5.38944977e+17
5.50749731e+17
5.62528049e+17
5.74275076e+17
5.85985944e+17
5.97655846e+17
6.09280175e+17
6.20854823e+17
6.3237681e+17
6.43845623e+17
6.55266117e+17
6.66639202e+17
6.77933404e+17
6.89142903e+17
7.00261798e+17
7.11284111e+17
7.22203789e+17
7.33014706e+17
7.4371066e+17
7.54285377e+17
7.64732509e+17
7.7504563e+17
7.85218238e+17
7.9524375e+17
8.05115499e+17
8.14826727e+17
8.24370584e+17
8.33740114e+17
8.42928252e+17
8.51927813e+17
8.60731478e+17
8.69331779e+17
8.77721087e+17
8.85891588e+17
8.93835262e+17
9.01543859e+17
9.09008864e+17
9.16221467e+17
9.23172522e+17
9.298525e+17
9.36251442e+17
9.42358901e+17
9.48163878e+17
9.53654766e+17
9.58819272e+17
9.6364436e+17
9.68116184e+17
9.72220045e+17
9.75940367e+17
9.79260698e+17
9.82163768e+17
9.84631597e+17
9.86645681e+17
9.88187222e+17
9.89237476e+17
9.89777893e+17
5.55290589e+16
6.58720546e+16
7.63076367e+16
8.68338041e+16
9.74495402e+16
1.08154502e+17
1.18948749e+17
1.2983252e+17
1.4080607e+17
1.51869552e+17
1.63022943e+17
1.74265998e+17
1.85598226e+17
1.97018882e+17
2.0852697e+17
2.20121251e+17
2.31800251e+17
2.43562283e+17
2.55405447e+17
2.67327652e+17
2.79326623e+17
2.91399909e+17
3.03544892e+17
3.15758797e+17
3.28038695e+17
3.40381508e+17
3.52784015e+17
3.65242857e+17
3.77754541e+17
3.9031544e+17
4.029218e+17
4.15569743e+17
4.28255271e+17
4.40974265e+17
4.53722494e+17
4.66495616e+17
4.79289178e+17
4.92098625e+17
5.04919299e+17
5.17746443e+17
5.30575207e+17
5.43400646e+17
5.56217728e+17
5.69021336e+17
5.81806274e+17
5.94567274e+17
6.07299008e+17
6.19996109e+17
6.32653208e+17
6.45265011e+17
6.57826442e+17
6.70332931e+17
6.82780996e+17
6.95169424e+17
7.075017e+17
7.19785969e+17
7.31983357e+17
7.44087522e+17
7.56092045e+17
7.67990441e+17
7.79776152e+17
7.91442554e+17
8.02982961e+17
8.14390617e+17
8.25658706e+17
8.36780341e+17
8.47748571e+17
8.58556372e+17
8.69196647e+17
8.79662218e+17
8.89945822e+17
9.000401e+17
9.09937592e+17
9.19630719e+17
9.29111776e+17
9.38372908e+17
9.47406099e+17
9.5620314e+17
9.64755611e+17
9.73054842e+17
9.81091885e+17
9.88857467e+17
9.96341946e+17
1.00353526e+18
1.01042685e+18
1.01700564e+18
1.02325989e+18
1.0291772e+18
1.03474437e+18
1.03994734e+18
1.04477113e+18
1.04919978e+18
1.05321629e+18
1.05680265e+18
1.05993989e+18
1.06260819e+18
1.06478711e+18
1.06645584e+18
1.06759364e+18
1.06817998e+18
5.95507258e+16
7.06453108e+16
8.18408975e+16
9.31349752e+16
1.04526083e+17
1.16013525e+17
1.27597116e+17
1.3927695e+17
1.51053223e+17
1.62926099e+17
1.74895616e+17
1.86961617e+17
1.99123713e+17
2.1138126e+17
2.23733354e+17
2.36178825e+17
2.4871625e+17
2.61343959e+17
2.74060044e+17
2.86862372e+17
2.99748594e+17
3.12716154e+17
3.25762301e+17
3.38884092e+17
3.52078403e+17
3.65341935e+17
3.78671218e+17
3.92062616e+17
4.05512335e+17
4.19016425e+17
4.32570787e+17
4.46171175e+17
4.59813202e+17
4.73492345e+17
4.87203948e+17
5.00943227e+17
5.14705275e+17
5.28485064e+17
5.42277454e+17
5.56077193e+17
5.69878922e+17
5.83677182e+17
5.97466417e+17
6.1124098e+17
6.24995139e+17
6.3872309e+17
6.52418967e+17
6.66076868e+17
6.79690899e+17
6.93255249e+17
7.06764334e+17
7.20213071e+17
7.33597412e+17
7.46915373e+17
7.60169081e+17
7.73374341e+17
7.86484544e+17
7.99492808e+17
8.12392187e+17
8.25175667e+17
8.37836176e+17
8.50366584e+17
8.62759705e+17
8.75008296e+17
8.87105064e+17
8.99042657e+17
9.10813669e+17
9.22410636e+17
9.33826028e+17
9.45052249e+17
9.56081626e+17
9.66906402e+17
9.77518727e+17
9.87910638e+17
9.9807405e+17
1.00800074e+18
1.0176823e+18
1.02711015e+18
1.03627549e+18
1.04516923e+18
1.05378201e+18
1.0621041e+18
1.07012539e+18
1.07783528e+18
1.08522266e+18
1.09227578e+18
1.09898222e+18
1.10532876e+18
1.1113013e+18
1.11688479e+18
1.1220631e+18
1.12681899e+18
1.13113403e+18
1.13498865e+18
1.13836214e+18
1.14123283e+18
1.14357828e+18
1.14537564e+18
1.14660206e+18
1.147235e+18
6.36003334e+16
7.54497543e+16
8.7408629e+16
9.94740344e+16
1.1164412e+17
1.23917861e+17
1.36294818e+17
1.48774922e+17
1.61358282e+17
1.74045045e+17
1.86835281e+17
1.99728903e+17
2.12725612e+17
2.2582486e+17
2.39025836e+17
2.52327451e+17
2.65728341e+17
2.7922687e+17
2.92821136e+17
3.06508984e+17
3.20288009e+17
3.34155569e+17
3.48108791e+17
3.62144585e+17
3.76259643e+17
3.90450454e+17
4.04713307e+17
4.19044299e+17
4.33439339e+17
4.47894155e+17
4.62404303e+17
4.76965168e+17
4.91571971e+17
5.06219776e+17
5.20903497e+17
5.35617899e+17
5.50357608e+17
5.65117113e+17
5.79890776e+17
5.94672834e+17
6.09457406e+17
6.242385e+17
6.39010018e+17
6.53765763e+17
6.6849945e+17
6.83204715e+17
6.97875136e+17
7.12504255e+17
7.27085624e+17
7.41612887e+17
7.56079915e+17
7.70481068e+17
7.84811671e+17
7.99068919e+17
8.13253598e+17
8.27389511e+17
8.41422035e+17
8.55343736e+17
8.69147119e+17
8.82824636e+17
8.96368682e+17
9.0977161e+17
9.23025723e+17
9.36123285e+17
9.49056514e+17
9.61817589e+17
9.74398644e+17
9.86791769e+17
9.98989002e+17
1.01098233e+18
1.02276366e+18
1.03432486e+18
1.04565767e+18
1.05675376e+18
1.06760468e+18
1.07820183e+18
1.08853643e+18
1.09859955e+18
1.10838198e+18
1.11787426e+18
1.12706661e+18
1.13594888e+18
1.14451047e+18
1.15274027e+18
1.1606266e+18
1.1681571e+18
1.17531863e+18
1.18209718e+18
1.18847777e+18
1.19444432e+18
1.19997957e+18
1.20506502e+18
1.2096808e+18
1.21380575e+18
1.21741743e+18
1.22049227e+18
1.22300582e+18
1.22493312e+18
1.22624917e+18
1.22692932e+18
6.76774295e+16
8.02849078e+16
9.30102566e+16
1.05850243e+17
1.18802695e+17
1.31866297e+17
1.45040374e+17
1.58324682e+17
1.71719231e+17
1.85224127e+17
1.98839452e+17
2.12565171e+17
2.26401058e+17
2.40346657e+17
2.54401245e+17
2.68563815e+17
2.8283307e+17
2.97207418e+17
3.1168498e+17
3.26263588e+17
3.40940797e+17
3.55713895e+17
3.70579904e+17
3.85535596e+17
4.00577494e+17
4.15701886e+17
4.3090483e+17
4.4618216e+17
4.61529495e+17
4.76942246e+17
4.92415623e+17
5.07944642e+17
5.23524131e+17
5.39148738e+17
5.54812937e+17
5.70511038e+17
5.86237189e+17
6.01985387e+17
6.17749484e+17
6.33523193e+17
6.49300096e+17
6.65073652e+17
6.80837205e+17
6.96583993e+17
7.12307157e+17
7.27999757e+17
7.43654792e+17
7.59265226e+17
7.74824036e+17
7.90324289e+17
8.0575928e+17
8.21122766e+17
8.36409399e+17
8.5161551e+17
8.66740567e+17
8.81816629e+17
8.9678084e+17
9.11625196e+17
9.26341642e+17
9.40922073e+17
9.55358347e+17
9.69642281e+17
9.83765661e+17
9.97720242e+17
1.01149775e+18
1.02508989e+18
1.03848832e+18
1.05168468e+18
1.06467058e+18
1.07743758e+18
1.08997719e+18
1.10228086e+18
1.11433997e+18
1.1261458e+18
1.13768953e+18
1.14896219e+18
1.15995468e+18
1.17065765e+18
1.18106155e+18
1.19115654e+18
1.20093242e+18
1.21037862e+18
1.21948407e+18
1.22823718e+18
1.23662569e+18
1.24463661e+18
1.25225613e+18
1.25946944e+18
1.26626067e+18
1.27261274e+18
1.27850728e+18
1.28392447e+18
1.28884305e+18
1.29324026e+18
1.29709192e+18
1.30037253e+18
1.30305562e+18
1.30511405e+18
1.30652066e+18
1.30724862e+18
7.17815415e+16
8.51502849e+16
9.86452193e+16
1.12262904e+17
1.26000925e+17
1.39857726e+17
1.53832422e+17
1.67924608e+17
1.82134186e+17
1.96461211e+17
2.1090576e+17
2.25467832e+17
2.40147265e+17
2.54943679e+17
2.69856436e+17
2.8488461e+17
3.00026973e+17
3.15281986e+17
3.30647796e+17
3.46122237e+17
3.61702837e+17
3.77386824e+17
3.93171127e+17
4.09052394e+17
4.25026991e+17
4.41091014e+17
4.57240299e+17
4.73470424e+17
4.89776727e+17
5.06154302e+17
5.22598019e+17
5.39102524e+17
5.55662251e+17
5.72271429e+17
5.88924092e+17
6.05614084e+17
6.22335071e+17
6.39080548e+17
6.55843847e+17
6.72618146e+17
6.89396478e+17
7.0617174e+17
7.22936703e+17
7.39684023e+17
7.56406252e+17
7.73095857e+17
7.89745238e+17
8.0634676e+17
8.228928e+17
8.39375825e+17
8.55788518e+17
8.72123997e+17
8.88376197e+17
9.04540556e+17
9.20615239e+17
9.36640771e+17
9.5254588e+17
9.68321975e+17
9.83960425e+17
9.9945256e+17
1.01478968e+18
1.02996306e+18
1.04496395e+18
1.0597836e+18
1.07441322e+18
1.08884402e+18
1.10306721e+18
1.11707396e+18
1.13085544e+18
1.14440278e+18
1.15770708e+18
1.17075939e+18
1.18355072e+18
1.19607196e+18
1.20831393e+18
1.22026731e+18
1.23192262e+18
1.24327017e+18
1.25430004e+18
1.265002e+18
1.27536546e+18
1.28537943e+18
1.29503239e+18
1.30431223e+18
1.31320616e+18
1.32170058e+18
1.32978096e+18
1.33743173e+18
1.34463614e+18
1.35137612e+18
1.35763215e+18
1.36338317e+18
1.36860648e+18
1.37327774e+18
1.37737101e+18
1.38085889e+18
1.38371282e+18
1.3859035e+18
1.38740151e+18
1.3881778e+18
7.59121758e+16
9.00453843e+16
1.04312958e+17
1.18711349e+17
1.33237982e+17
1.4789112e+17
1.62669706e+17
1.77573197e+17
1.92601393e+17
2.07754293e+17
2.23031959e+17
2.38434413e+17
2.53961541e+17
2.69613034e+17
2.85388328e+17
3.01286575e+17
3.17306615e+17
3.33446964e+17
3.49705801e+17
3.66080972e+17
3.82569983e+17
3.99170014e+17
4.15877913e+17
4.32690212e+17
4.49603131e+17
4.66612584e+17
4.83714193e+17
5.0090329e+17
5.18174932e+17
5.35523908e+17
5.52944747e+17
5.70431729e+17
5.87978894e+17
6.05580051e+17
6.23228789e+17
6.40918485e+17
6.58642317e+17
6.7639327e+17
6.94164148e+17
7.11947586e+17
7.29736056e+17
7.47521881e+17
7.65297248e+17
7.83054216e+17
8.00784733e+17
8.18480655e+17
8.36133768e+17
8.53735818e+17
8.71278561e+17
8.88753835e+17
9.06153682e+17
9.23470547e+17
9.40697613e+17
9.57829397e+17
9.7486278e+17
9.91846907e+17
1.00870195e+18
1.02541872e+18
1.04198799e+18
1.0584005e+18
1.074647e+18
1.0907182e+18
1.1066048e+18
1.12229753e+18
1.13778708e+18
1.15306417e+18
1.16811952e+18
1.18294384e+18
1.19752786e+18
1.21186227e+18
1.22593775e+18
1.23974497e+18
1.25327453e+18
1.26651697e+18
1.27946272e+18
1.29210211e+18
1.3044253e+18
1.31642225e+18
1.32808266e+18
1.33939594e+18
1.35035112e+18
1.36093676e+18
1.3711409e+18
1.38095095e+18
1.39035355e+18
1.39933451e+18
1.40787861e+18
1.4159695e+18
1.42358957e+18
1.43071974e+18
1.43733939e+18
1.44342619e+18
1.44895603e+18
1.45390299e+18
1.45823937e+18
1.46193586e+18
1.46496182e+18
1.46728575e+18
1.46887594e+18
1.46970104e+18
8.00688178e+16
9.49696864e+16
1.10012908e+17
1.25194922e+17
1.40513075e+17
1.55965513e+17
1.71551059e+17
1.87269055e+17
2.03119219e+17
2.19101495e+17
2.3521593e+17
2.51462559e+17
2.67841308e+17
2.84351927e+17
3.0099392e+17
3.17766511e+17
3.34668607e+17
3.51698775e+17
3.68855232e+17
3.86135837e+17
4.03538085e+17
4.21059111e+17
4.38695692e+17
4.56444255e+17
4.7430088e+17
4.9226131e+17
5.10320958e+17
5.28474919e+17
5.46717978e+17
5.6504462e+17
5.83449038e+17
6.0192515e+17
6.20466602e+17
6.39066784e+17
6.5771884e+17
6.76415677e+17
6.95149979e+17
7.13914218e+17
7.32700665e+17
7.51501401e+17
7.70308333e+17
7.89113202e+17
8.07907601e+17
8.26682987e+17
8.45430703e+17
8.64141998e+17
8.82808059e+17
9.01420051e+17
9.19969183e+17
9.38446803e+17
9.56844555e+17
9.75154635e+17
9.93370213e+17
1.01148615e+18
1.02950022e+18
1.04741985e+18
1.06523368e+18
1.08289989e+18
1.10040864e+18
1.11775009e+18
1.1349144e+18
1.1518917e+18
1.16867215e+18
1.18524591e+18
1.20160319e+18
1.21773417e+18
1.23362909e+18
1.2492782e+18
1.26467174e+18
1.2798e+18
1.29465322e+18
1.30922167e+18
1.32349555e+18
1.33746503e+18
1.35112017e+18
1.36445095e+18
1.37744715e+18
1.39009839e+18
1.40239401e+18
1.41432303e+18
1.42587409e+18
1.43703534e+18
1.44779438e+18
1.45813811e+18
1.46805264e+18
1.47752317e+18
1.48653379e+18
1.49506741e+18
1.50310553e+18
1.51062809e+18
1.51761338e+18
1.52403779e+18
1.52987584e+18
1.53510001e+18
1.53968088e+18
1.5435872e+18
1.54678627e+18
1.54924434e+18
1.55092739e+18
1.55180174e+18
8.42509307e+16
9.99226497e+16
1.15744492e+17
1.31712971e+17
1.47825437e+17
1.6407999e+17
1.80475379e+17
1.97010875e+17
2.13686131e+17
2.30501053e+17
2.47455673e+17
2.64550035e+17
2.81784101e+17
2.99157669e+17
3.16670307e+17
3.34321303e+17
3.52109625e+17
3.70033893e+17
3.88092361e+17
4.06282901e+17
4.24603e+17
4.43049758e+17
4.61619886e+17
4.8030971e+17
4.99115181e+17
5.18031874e+17
5.37055007e+17
5.56179441e+17
5.75399695e+17
5.94709955e+17
6.14104086e+17
6.33575643e+17
6.53117884e+17
6.72723779e+17
6.92386027e+17
7.12097064e+17
7.31849079e+17
7.51634026e+17
7.71443639e+17
7.9126944e+17
8.11102762e+17
8.30934754e+17
8.50756407e+17
8.70558563e+17
8.9033194e+17
9.1006716e+17
9.29754775e+17
9.49385318e+17
9.68949367e+17
9.88437642e+17
1.00784117e+18
1.02715151e+18
1.04636122e+18
1.06546446e+18
1.08445822e+18
1.10334428e+18
1.12212554e+18
1.14074976e+18
1.1592065e+18
1.1774853e+18
1.19557571e+18
1.21346729e+18
1.23114963e+18
1.24861235e+18
1.26584508e+18
1.28283753e+18
1.29957942e+18
1.3160605e+18
1.33227058e+18
1.34819947e+18
1.36383702e+18
1.37917306e+18
1.3941974e+18
1.40889983e+18
1.42327004e+18
1.43729762e+18
1.45097204e+18
1.46428251e+18
1.47721803e+18
1.48976725e+18
1.5019184e+18
1.51365923e+18
1.52497688e+18
1.53585777e+18
1.54628747e+18
1.55625056e+18
1.56573048e+18
1.57470936e+18
1.58316784e+18
1.59108492e+18
1.59843774e+18
1.6052015e+18
1.61134929e+18
1.61685206e+18
1.62167864e+18
1.62579589e+18
1.629169e+18
1.63176202e+18
1.63353855e+18
1.63446253e+18
8.8457955e+16
1.04903709e+17
1.21507112e+17
1.38264837e+17
1.55174314e+17
1.72233663e+17
1.8944162e+17
2.06797421e+17
2.24300689e+17
2.41951305e+17
2.59749295e+17
2.77694716e+17
2.95787562e+17
3.14027674e+17
3.32414678e+17
3.50947918e+17
3.6962642e+17
3.88448853e+17
4.07413503e+17
4.26518261e+17
4.45760608e+17
4.65137608e+17
4.84645911e+17
5.04281752e+17
5.24040954e+17
5.43918937e+17
5.63910723e+17
5.84010949e+17
6.04213874e+17
6.24513391e+17
6.44903041e+17
6.65376021e+17
6.85925202e+17
7.06543138e+17
7.27222084e+17
7.47954004e+17
7.68730592e+17
7.89543282e+17
8.10383265e+17
8.31241503e+17
8.52108746e+17
8.72975548e+17
8.93832286e+17
9.14669178e+17
9.35476307e+17
9.56243651e+17
9.76961114e+17
9.97618575e+17
1.01820596e+18
1.03871332e+18
1.05913102e+18
1.07944996e+18
1.09966195e+18
1.11976035e+18
1.13974114e+18
1.15960467e+18
1.17936179e+18
1.19895242e+18
1.21836547e+18
1.23758987e+18
1.25661454e+18
1.27542846e+18
1.29402063e+18
1.31238009e+18
1.33049596e+18
1.34835739e+18
1.36595359e+18
1.38327383e+18
1.40030743e+18
1.41704376e+18
1.43347222e+18
1.44958222e+18
1.46536319e+18
1.4808045e+18
1.49589547e+18
1.51062535e+18
1.52498319e+18
1.53895788e+18
1.55253803e+18
1.56571192e+18
1.57846739e+18
1.59079177e+18
1.60267175e+18
1.61409326e+18
1.62504132e+18
1.63549994e+18
1.64545186e+18
1.65487848e+18
1.66375956e+18
1.67207315e+18
1.67979531e+18
1.68690001e+18
1.69335896e+18
1.69914158e+18
1.70421498e+18
1.70854412e+18
1.71209211e+18
1.71482075e+18
1.71669129e+18
1.71766525e+18
9.26893083e+16
1.09912271e+17
1.27300148e+17
1.44849846e+17
1.62558947e+17
1.80425662e+17
1.98448767e+17
2.16627512e+17
2.34961519e+17
2.53450671e+17
2.72094999e+17
2.9089458e+17
3.09849438e+17
3.28959458e+17
3.48224315e+17
3.67643409e+17
3.87215816e+17
4.06940249e+17
4.26815028e+17
4.46838058e+17
4.67006813e+17
4.87318327e+17
5.07769191e+17
5.2835555e+17
5.49073108e+17
5.69917132e+17
5.90882458e+17
6.11963501e+17
6.33154268e+17
6.54448364e+17
6.75839009e+17
6.97319049e+17
7.18880971e+17
7.40516915e+17
7.62218694e+17
7.83977803e+17
8.05785439e+17
8.27632516e+17
8.49509681e+17
8.71407331e+17
8.93315631e+17
9.15224533e+17
9.37123795e+17
9.59003003e+17
9.80851598e+17
1.0026589e+18
1.02441416e+18
1.04610658e+18
1.06772542e+18
1.08926007e+18
1.11070019e+18
1.13203597e+18
1.15325848e+18
1.17436024e+18
1.19533621e+18
1.21618533e+18
1.23692651e+18
1.2574917e+18
1.27786919e+18
1.29804724e+18
1.31801417e+18
1.33775834e+18
1.35726815e+18
1.37653207e+18
1.39553865e+18
1.41427649e+18
1.43273429e+18
1.45090081e+18
1.46876489e+18
1.48631543e+18
1.50354138e+18
1.52043173e+18
1.53697548e+18
1.55316162e+18
1.56897908e+18
1.58441671e+18
1.59946322e+18
1.61410712e+18
1.62833665e+18
1.64213969e+18
1.65550371e+18
1.66841559e+18
1.68086159e+18
1.69282715e+18
1.70429675e+18
1.71525379e+18
1.72568036e+18
1.73555709e+18
1.74486292e+18
1.75357493e+18
1.76166812e+18
1.76911524e+18
1.77588665e+18
1.78195024e+18
1.78727142e+18
1.79181327e+18
1.79553685e+18
1.79840171e+18
1.80036671e+18
1.80139094e+18
9.69443834e+16
1.14947717e+17
1.33122954e+17
1.51467304e+17
1.69978572e+17
1.88655123e+17
2.0749583e+17
2.26500004e+17
2.45667305e+17
2.6499764e+17
2.84491065e+17
3.04147687e+17
3.23967564e+17
3.43950624e+17
3.6409659e+17
3.84404911e+17
4.04874711e+17
4.25504744e+17
4.46293358e+17
4.67238471e+17
4.8833755e+17
5.095876e+17
5.30985153e+17
5.5252627e+17
5.74206538e+17
5.96021075e+17
6.17964536e+17
6.40031121e+17
6.62214589e+17
6.84508262e+17
7.06905045e+17
7.29397438e+17
7.51977546e+17
7.74637102e+17
7.97367477e+17
8.201597e+17
8.43004474e+17
8.6589219e+17
8.88812952e+17
9.1175659e+17
9.34712683e+17
9.57670576e+17
9.80619403e+17
1.00354811e+18
1.0264455e+18
1.04930021e+18
1.07210083e+18
1.0948359e+18
1.11749396e+18
1.14006373e+18
1.16253416e+18
1.18489472e+18
1.20713569e+18
1.22924873e+18
1.25122775e+18