/*--------------------------------*- C++ -*----------------------------------*\
| =========                 |                                                 |
| \\      /  F ield         | OpenFOAM Extend Project: Open source CFD        |
|  \\    /   O peration     | Version:  1.6-ext                               |
|   \\  /    A nd           | Web:      www.extend-project.de                 |
|    \\/     M anipulation  |                                                 |
\*---------------------------------------------------------------------------*/
FoamFile
{
    version     2.0;
    format      ascii;
    class       volScalarField;
    location    "4000";
    object      prec2_adj;
}
// * * * * * * * * * * * * * * * * * * * * * * * * * * * * * * * * * * * * * //

dimensions      [0 -2 -1 0 0 0 0];

internalField   nonuniform List<scalar> 
40000
(
2.07530955e+16
2.44511439e+16
2.80585807e+16
3.17817954e+16
3.57509063e+16
4.0180148e+16
4.46775095e+16
4.94085305e+16
5.43710054e+16
5.95511113e+16
6.49253929e+16
7.04642103e+16
7.61353034e+16
8.19066437e+16
8.77483339e+16
9.36336558e+16
9.95394924e+16
1.05446341e+17
1.11338093e+17
1.17201694e+17
1.23026769e+17
1.28805246e+17
1.34531011e+17
1.40199595e+17
1.45807911e+17
1.51354019e+17
1.56836938e+17
1.62256486e+17
1.67613146e+17
1.72907963e+17
1.78142458e+17
1.83318562e+17
1.88438563e+17
1.93505074e+17
1.98521004e+17
2.0348955e+17
2.08414193e+17
2.13298707e+17
2.18147179e+17
2.22964037e+17
2.27754091e+17
2.32522588e+17
2.37275277e+17
2.42018493e+17
2.46759257e+17
2.51505401e+17
2.56265715e+17
2.61050123e+17
2.65869906e+17
2.7073796e+17
2.75669112e+17
2.80680506e+17
2.85792072e+17
2.91027099e+17
2.96253143e+17
3.01384509e+17
3.06419208e+17
3.11355761e+17
3.16193206e+17
3.20931076e+17
3.25569391e+17
3.30108634e+17
3.3454973e+17
3.38894031e+17
3.43143289e+17
3.4729963e+17
3.51365533e+17
3.55343795e+17
3.59237505e+17
3.63050013e+17
3.66784884e+17
3.70445869e+17
3.74036848e+17
3.77561786e+17
3.81024672e+17
3.84429447e+17
3.87779933e+17
3.91079734e+17
3.94332136e+17
3.97539981e+17
4.00705526e+17
4.03830277e+17
4.06914804e+17
4.09958521e+17
4.12959455e+17
4.1591397e+17
4.18816493e+17
4.21659203e+17
4.24431736e+17
4.27120895e+17
4.29710397e+17
4.32180704e+17
4.34508954e+17
4.36669055e+17
4.38632005e+17
4.4036638e+17
4.41839298e+17
4.43016824e+17
4.43866652e+17
4.44352478e+17
2.4607787e+16
2.89575251e+16
3.3188733e+16
3.83011261e+16
4.39528198e+16
5.05063987e+16
5.81160042e+16
6.67444728e+16
7.62335978e+16
8.63835155e+16
9.70000959e+16
1.07916406e+17
1.18998319e+17
1.30142553e+17
1.4127195e+17
1.52330303e+17
1.63277704e+17
1.74086677e+17
1.84739123e+17
1.95223953e+17
2.05535282e+17
2.15671071e+17
2.25632103e+17
2.35421218e+17
2.45042745e+17
2.54502081e+17
2.63805376e+17
2.72959307e+17
2.81970911e+17
2.90847471e+17
2.99596427e+17
3.0822533e+17
3.16741799e+17
3.25153514e+17
3.33468202e+17
3.41693652e+17
3.49837718e+17
3.5790835e+17
3.65913614e+17
3.73861725e+17
3.81761086e+17
3.89620328e+17
3.97448356e+17
4.05254403e+17
4.13048087e+17
4.20839476e+17
4.2863916e+17
4.3645833e+17
4.44308869e+17
4.52203453e+17
4.60155663e+17
4.68180112e+17
4.76292589e+17
4.84510217e+17
4.92695438e+17
5.00635703e+17
5.0833579e+17
5.15801369e+17
5.23038985e+17
5.30056026e+17
5.36860692e+17
5.43461964e+17
5.49869568e+17
5.56093931e+17
5.62146138e+17
5.68037883e+17
5.73781407e+17
5.79389436e+17
5.848751e+17
5.9025185e+17
5.95533352e+17
6.00733372e+17
6.05865641e+17
6.10943703e+17
6.15980735e+17
6.20989347e+17
6.2598136e+17
6.30967547e+17
6.35957348e+17
6.40958555e+17
6.45976961e+17
6.51015977e+17
6.56076222e+17
6.61155071e+17
6.66246198e+17
6.71339085e+17
6.76418536e+17
6.81464204e+17
6.86450148e+17
6.91344465e+17
6.96109029e+17
7.00699387e+17
7.05064882e+17
7.09149056e+17
7.12890424e+17
7.16223568e+17
7.19080805e+17
7.2139346e+17
7.23095264e+17
7.24116105e+17
2.8424738e+16
3.35319283e+16
3.94217603e+16
4.59806223e+16
5.40829712e+16
6.41106615e+16
7.60720341e+16
8.97122701e+16
1.0467317e+17
1.20601134e+17
1.37194908e+17
1.54216706e+17
1.7148678e+17
1.88872721e+17
2.06278584e+17
2.23635634e+17
2.40895076e+17
2.58022557e+17
2.74994108e+17
2.91793185e+17
3.0840852e+17
3.24832581e+17
3.4106046e+17
3.5708908e+17
3.72916638e+17
3.88542203e+17
4.03965448e+17
4.19186461e+17
4.34205629e+17
4.49023559e+17
4.63641039e+17
4.78059028e+17
4.92278658e+17
5.06301249e+17
5.20128337e+17
5.33761709e+17
5.4720344e+17
5.60455934e+17
5.73521973e+17
5.86404761e+17
5.99107974e+17
6.1163581e+17
6.23993044e+17
6.36185075e+17
6.4821799e+17
6.60098614e+17
6.71834577e+17
6.83434371e+17
6.94907419e+17
7.06264143e+17
7.17516034e+17
7.2867573e+17
7.39757083e+17
7.50775212e+17
7.61671907e+17
7.72176225e+17
7.82301983e+17
7.92063691e+17
8.01476537e+17
8.10556383e+17
8.1931974e+17
8.27783755e+17
8.35966174e+17
8.43885311e+17
8.51560001e+17
8.59009543e+17
8.66253633e+17
8.73312284e+17
8.80205727e+17
8.86954295e+17
8.93578287e+17
9.00097812e+17
9.06532604e+17
9.12901812e+17
9.19223765e+17
9.25515696e+17
9.31793449e+17
9.38071139e+17
9.44360784e+17
9.50671909e+17
9.57011103e+17
9.63381562e+17
9.69782595e+17
9.76209109e+17
9.8265109e+17
9.89093066e+17
9.95513603e+17
1.00188482e+18
1.00817196e+18
1.01433308e+18
1.02031887e+18
1.02607264e+18
1.0315306e+18
1.03662245e+18
1.04127232e+18
1.04540021e+18
1.0489238e+18
1.05176021e+18
1.05382933e+18
1.05504915e+18
3.22994877e+16
3.88887368e+16
4.62094338e+16
5.52603927e+16
6.68884752e+16
8.13636521e+16
9.84786325e+16
1.17781349e+17
1.38770544e+17
1.60997631e+17
1.84099249e+17
2.07795423e+17
2.31875483e+17
2.56182195e+17
2.80598003e+17
3.05034246e+17
3.2942313e+17
3.53711892e+17
3.77858627e+17
4.01829318e+17
4.25595725e+17
4.49133899e+17
4.72423131e+17
4.95445209e+17
5.18183905e+17
5.40624608e+17
5.62754083e+17
5.84560304e+17
6.06032344e+17
6.2716031e+17
6.47935304e+17
6.68349405e+17
6.88395666e+17
7.08068122e+17
7.27361798e+17
7.46272727e+17
7.64797968e+17
7.82935624e+17
8.00684864e+17
8.18045938e+17
8.350202e+17
8.51610122e+17
8.67819318e+17
8.83652559e+17
8.99115792e+17
9.14216159e+17
9.28962018e+17
9.43362961e+17
9.57429837e+17
9.71174771e+17
9.84611185e+17
9.97753813e+17
1.01061871e+18
1.02322321e+18
1.03559345e+18
1.04747166e+18
1.05887875e+18
1.06983592e+18
1.08036466e+18
1.09048675e+18
1.10022432e+18
1.1095998e+18
1.11863595e+18
1.12735582e+18
1.13578271e+18
1.14394015e+18
1.15185181e+18
1.15954147e+18
1.16703284e+18
1.17434953e+18
1.18151486e+18
1.1885517e+18
1.19548228e+18
1.20232798e+18
1.20910906e+18
1.21584436e+18
1.22255105e+18
1.2292442e+18
1.23593646e+18
1.24263761e+18
1.24935415e+18
1.25608883e+18
1.26284013e+18
1.26960182e+18
1.27636245e+18
1.28310481e+18
1.28980553e+18
1.2964346e+18
1.30295507e+18
1.30932275e+18
1.31548615e+18
1.32138656e+18
1.32695835e+18
1.33212968e+18
1.33682347e+18
1.34095883e+18
1.34445292e+18
1.34722277e+18
1.34918831e+18
1.3502694e+18
3.63103979e+16
4.4370646e+16
5.39477766e+16
6.63856992e+16
8.24028926e+16
1.02038042e+17
1.24864739e+17
1.50276504e+17
1.77674578e+17
2.06547835e+17
2.36488244e+17
2.67179128e+17
2.98376282e+17
3.29890162e+17
3.61571586e+17
3.93301026e+17
4.24980867e+17
4.56529892e+17
4.87879376e+17
5.18970322e+17
5.49751492e+17
5.80177991e+17
6.10210249e+17
6.3981327e+17
6.68956076e+17
6.97611287e+17
7.25754796e+17
7.53365515e+17
7.8042517e+17
8.06918128e+17
8.32831251e+17
8.58153768e+17
8.82877157e+17
9.0699504e+17
9.30503082e+17
9.53398897e+17
9.75681955e+17
9.97353499e+17
1.01841646e+18
1.03887538e+18
1.05873634e+18
1.07800687e+18
1.09669592e+18
1.11481376e+18
1.13237197e+18
1.14938334e+18
1.16586187e+18
1.1818227e+18
1.1972821e+18
1.21225743e+18
1.22676711e+18
1.24083061e+18
1.25446839e+18
1.26770185e+18
1.28060953e+18
1.29296854e+18
1.30480421e+18
1.31614179e+18
1.32700644e+18
1.33742333e+18
1.3474176e+18
1.35701447e+18
1.36623919e+18
1.37511705e+18
1.38367339e+18
1.39193351e+18
1.39992269e+18
1.40766606e+18
1.41518854e+18
1.42251475e+18
1.42966884e+18
1.43667432e+18
1.44355394e+18
1.4503294e+18
1.45702116e+18
1.46364813e+18
1.47022739e+18
1.47677385e+18
1.48329986e+18
1.48981489e+18
1.49632506e+18
1.5028327e+18
1.50933599e+18
1.5158284e+18
1.52229835e+18
1.52872869e+18
1.53509636e+18
1.54137202e+18
1.54751976e+18
1.55349695e+18
1.55925415e+18
1.56473533e+18
1.56987818e+18
1.57461479e+18
1.57887264e+18
1.58257595e+18
1.58564742e+18
1.58801002e+18
1.58958971e+18
1.59031363e+18
4.05436452e+16
5.0174528e+16
6.27124184e+16
7.92979163e+16
1.00375514e+17
1.25700746e+17
1.54644014e+17
1.86475892e+17
2.20524211e+17
2.56227547e+17
2.93135781e+17
3.30891965e+17
3.69211576e+17
4.07864851e+17
4.46663305e+17
4.85449917e+17
5.24092127e+17
5.62476852e+17
6.00506904e+17
6.38098387e+17
6.75178742e+17
7.11685273e+17
7.47563974e+17
7.8276859e+17
8.17259838e+17
8.51004745e+17
8.83976069e+17
9.16151793e+17
9.47514669e+17
9.78051798e+17
1.00775425e+18
1.03661672e+18
1.06463717e+18
1.09181659e+18
1.11815864e+18
1.14366945e+18
1.16835734e+18
1.19223263e+18
1.21530738e+18
1.2375953e+18
1.25911148e+18
1.27987229e+18
1.29989526e+18
1.31919892e+18
1.33780273e+18
1.35572697e+18
1.37299268e+18
1.3896216e+18
1.4056361e+18
1.42105917e+18
1.43591434e+18
1.45022569e+18
1.46401779e+18
1.47731563e+18
1.49018675e+18
1.50251736e+18
1.51429772e+18
1.52555516e+18
1.53631669e+18
1.54660904e+18
1.55645874e+18
1.56589213e+18
1.57493539e+18
1.58361457e+18
1.59195558e+18
1.59998412e+18
1.60772572e+18
1.61520562e+18
1.62244871e+18
1.62947944e+18
1.63632168e+18
1.64299858e+18
1.64953241e+18
1.65594431e+18
1.66225414e+18
1.66848015e+18
1.67463875e+18
1.68074416e+18
1.68680812e+18
1.6928395e+18
1.69884395e+18
1.70482351e+18
1.7107762e+18
1.71669563e+18
1.72257062e+18
1.72838484e+18
1.73411645e+18
1.73973784e+18
1.74521539e+18
1.75050941e+18
1.7555741e+18
1.76035773e+18
1.7648031e+18
1.7688481e+18
1.77242671e+18
1.77547025e+18
1.77790895e+18
1.7796737e+18
1.78069843e+18
1.78091912e+18
4.46798967e+16
5.6362147e+16
7.24580373e+16
9.38023096e+16
1.20452972e+17
1.5186074e+17
1.87206878e+17
2.25655236e+17
2.66468691e+17
3.09036682e+17
3.52863828e+17
3.97548012e+17
4.42759582e+17
4.88224881e+17
5.33714136e+17
5.79032743e+17
6.24015013e+17
6.68519588e+17
7.12425983e+17
7.55631891e+17
7.98051005e+17
8.39611202e+17
8.80252982e+17
9.199281e+17
9.5859836e+17
9.96234512e+17
1.03281527e+18
1.06832642e+18
1.10275998e+18
1.13611348e+18
1.16838925e+18
1.19959384e+18
1.22973742e+18
1.25883332e+18
1.28689753e+18
1.31394832e+18
1.34000586e+18
1.36509194e+18
1.38922963e+18
1.41244307e+18
1.43475727e+18
1.45619789e+18
1.47679114e+18
1.4965636e+18
1.51554217e+18
1.53375392e+18
1.55122612e+18
1.56798611e+18
1.58406131e+18
1.5994792e+18
1.61426726e+18
1.62845303e+18
1.64206402e+18
1.65512771e+18
1.66767149e+18
1.67971261e+18
1.69119037e+18
1.702133e+18
1.71256818e+18
1.72252315e+18
1.73202479e+18
1.74109963e+18
1.74977392e+18
1.75807364e+18
1.76602448e+18
1.77365186e+18
1.78098087e+18
1.78803623e+18
1.79484222e+18
1.8014226e+18
1.80780046e+18
1.81399811e+18
1.82003694e+18
1.82593719e+18
1.83171775e+18
1.83739596e+18
1.84298731e+18
1.84850518e+18
1.85396054e+18
1.85936159e+18
1.8647135e+18
1.87001799e+18
1.87527301e+18
1.88047244e+18
1.88560566e+18
1.89065733e+18
1.89560709e+18
1.9004293e+18
1.90509294e+18
1.90956152e+18
1.91379316e+18
1.91774077e+18
1.9213525e+18
1.92457235e+18
1.92734106e+18
1.92959728e+18
1.93127907e+18
1.93232549e+18
1.93267871e+18
1.93228358e+18
4.88671801e+16
6.29295406e+16
8.30794274e+16
1.09657647e+17
1.42263132e+17
1.80032294e+17
2.21964659e+17
2.67122231e+17
3.14702524e+17
3.64042476e+17
4.14597667e+17
4.6591825e+17
5.17628875e+17
5.69413682e+17
6.2100548e+17
6.72177908e+17
7.22739595e+17
7.72529621e+17
8.21413818e+17
8.69281652e+17
9.16043495e+17
9.61628199e+17
1.00598091e+18
1.04906107e+18
1.09084065e+18
1.13130247e+18
1.17043874e+18
1.20824972e+18
1.24474252e+18
1.27993004e+18
1.31382998e+18
1.34646403e+18
1.37785712e+18
1.40803675e+18
1.43703249e+18
1.4648754e+18
1.49159772e+18
1.51723246e+18
1.5418131e+18
1.56537341e+18
1.58794718e+18
1.60956811e+18
1.6302697e+18
1.65008511e+18
1.66904713e+18
1.68718814e+18
1.70454004e+18
1.72113432e+18
1.73700198e+18
1.7521736e+18
1.76667932e+18
1.78054889e+18
1.79381165e+18
1.80649653e+18
1.81863206e+18
1.83026225e+18
1.84132273e+18
1.85184185e+18
1.86184727e+18
1.87136613e+18
1.88042509e+18
1.88905037e+18
1.89726781e+18
1.90510291e+18
1.91258078e+18
1.91972619e+18
1.9265635e+18
1.93311665e+18
1.93940906e+18
1.94546357e+18
1.95130232e+18
1.95694665e+18
1.9624169e+18
1.96773228e+18
1.97291068e+18
1.97796841e+18
1.98292001e+18
1.98777795e+18
1.9925524e+18
1.9972509e+18
2.00187808e+18
2.00643536e+18
2.01092063e+18
2.01532796e+18
2.0196473e+18
2.02386424e+18
2.0279598e+18
2.03191022e+18
2.03568692e+18
2.03925644e+18
2.04258056e+18
2.04561656e+18
2.04831762e+18
2.05063344e+18
2.05251113e+18
2.05389625e+18
2.05473427e+18
2.05497199e+18
2.05455948e+18
2.05344996e+18
5.31141994e+16
6.98473689e+16
9.44493137e+16
1.26619617e+17
1.65451938e+17
2.09763441e+17
2.58373567e+17
3.10240779e+17
3.64493048e+17
4.20410917e+17
4.77399134e+17
5.34961164e+17
5.92679871e+17
6.50203625e+17
7.0723629e+17
7.63529712e+17
8.1887778e+17
8.73111452e+17
9.26094413e+17
9.77719179e+17
1.02790354e+18
1.07658733e+18
1.12372943e+18
1.16930509e+18
1.21330346e+18
1.25572542e+18
1.29658163e+18
1.33589077e+18
1.37367804e+18
1.40997384e+18
1.44481263e+18
1.47823195e+18
1.51027158e+18
1.54097286e+18
1.57037808e+18
1.59853004e+18
1.62547161e+18
1.65124547e+18
1.67589381e+18
1.69945821e+18
1.72197943e+18
1.74349737e+18
1.76405096e+18
1.78367819e+18
1.80241603e+18
1.82030049e+18
1.83736663e+18
1.85364857e+18
1.86917958e+18
1.88399211e+18
1.89811781e+18
1.91158764e+18
1.92443185e+18
1.93668003e+18
1.94836113e+18
1.95953458e+18
1.97013459e+18
1.98018914e+18
1.98972554e+18
1.99877045e+18
2.00735001e+18
2.01548987e+18
2.02321526e+18
2.03055095e+18
2.03752135e+18
2.04415043e+18
2.05046172e+18
2.05647827e+18
2.06222259e+18
2.06771655e+18
2.07298133e+18
2.07803722e+18
2.08290357e+18
2.08759855e+18
2.09213904e+18
2.09654035e+18
2.10081608e+18
2.10497783e+18
2.10903497e+18
2.11299437e+18
2.11686013e+18
2.12063332e+18
2.1243117e+18
2.12788947e+18
2.131357e+18
2.13470067e+18
2.13790266e+18
2.14094084e+18
2.14378872e+18
2.1464155e+18
2.14878617e+18
2.15086186e+18
2.15260021e+18
2.15395602e+18
2.1548821e+18
2.15533029e+18
2.15525275e+18
2.15460342e+18
2.15333965e+18
2.15142244e+18
5.74225226e+16
7.70741458e+16
1.06438232e+17
1.44460031e+17
1.89698522e+17
2.4064837e+17
2.95947117e+17
3.54445207e+17
4.15196448e+17
4.7742271e+17
5.40479081e+17
6.03827e+17
6.67015177e+17
7.2966609e+17
7.91466031e+17
8.52157228e+17
9.11531219e+17
9.69422957e+17
1.02570544e+18
1.0802848e+18
1.13309567e+18
1.18409709e+18
1.23326866e+18
1.28060715e+18
1.32612344e+18
1.36983988e+18
1.41178794e+18
1.4520062e+18
1.49053865e+18
1.5274332e+18
1.56274053e+18
1.59651301e+18
1.62880392e+18
1.65966679e+18
1.68915486e+18
1.71732068e+18
1.74421578e+18
1.76989046e+18
1.79439364e+18
1.81777273e+18
1.84007357e+18
1.86134045e+18
1.88161609e+18
1.90094166e+18
1.91935686e+18
1.93689997e+18
1.95360794e+18
1.96951644e+18
1.98465995e+18
1.99907186e+18
2.01278454e+18
2.02582942e+18
2.03823702e+18
2.05003705e+18
2.06125842e+18
2.07196956e+18
2.08210379e+18
2.09168854e+18
2.10075047e+18
2.10931563e+18
2.11740949e+18
2.125057e+18
2.13228265e+18
2.13911047e+18
2.14556408e+18
2.15166661e+18
2.15744076e+18
2.1629087e+18
2.16809203e+18
2.17301171e+18
2.17768793e+18
2.18214007e+18
2.18638647e+18
2.19044435e+18
2.19432961e+18
2.19805665e+18
2.20163816e+18
2.20508488e+18
2.20840542e+18
2.21160599e+18
2.21469014e+18
2.21765854e+18
2.22050875e+18
2.22323497e+18
2.22582785e+18
2.22827433e+18
2.23055749e+18
2.23265649e+18
2.23454658e+18
2.23619912e+18
2.23758185e+18
2.23865912e+18
2.23939241e+18
2.23974094e+18
2.23966247e+18
2.23911438e+18
2.23805484e+18
2.23644418e+18
2.23424645e+18
2.23142972e+18
6.17896113e+16
8.45639092e+16
1.18924028e+17
1.62974212e+17
2.14720119e+17
2.72331545e+17
3.34260956e+17
3.99246121e+17
4.66263512e+17
5.34476617e+17
6.03195077e+17
6.71845963e+17
7.39954081e+17
8.07127915e+17
8.73048875e+17
9.37462324e+17
1.0001697e+18
1.06102129e+18
1.11990957e+18
1.17676303e+18
1.23154058e+18
1.28422639e+18
1.33482538e+18
1.38335916e+18
1.42986259e+18
1.47438069e+18
1.51696613e+18
1.55767708e+18
1.59657542e+18
1.63372527e+18
1.66919184e+18
1.70304048e+18
1.73533593e+18
1.7661418e+18
1.79552014e+18
1.82353113e+18
1.85023292e+18
1.87568147e+18
1.89993052e+18
1.92303157e+18
1.94503391e+18
1.96598469e+18
1.985929e+18
2.00490994e+18
2.02296878e+18
2.04014501e+18
2.05647651e+18
2.07199964e+18
2.08674936e+18
2.10075932e+18
2.11406202e+18
2.12668884e+18
2.13867015e+18
2.15003541e+18
2.16081316e+18
2.17107735e+18
2.18076021e+18
2.18988844e+18
2.198488e+18
2.2065842e+18
2.21420178e+18
2.22136496e+18
2.22809746e+18
2.23442256e+18
2.24036307e+18
2.24594135e+18
2.25117926e+18
2.25609815e+18
2.26071875e+18
2.26506116e+18
2.2691447e+18
2.27298783e+18
2.27660801e+18
2.28002155e+18
2.28324347e+18
2.28628727e+18
2.28916479e+18
2.291886e+18
2.29445874e+18
2.29688854e+18
2.29917839e+18
2.30132851e+18
2.30333616e+18
2.30519541e+18
2.30689702e+18
2.30842825e+18
2.30977283e+18
2.31091085e+18
2.31181888e+18
2.31247003e+18
2.31283418e+18
2.31287837e+18
2.31256727e+18
2.31186379e+18
2.31072996e+18
2.30912795e+18
2.30702119e+18
2.30437575e+18
2.3011617e+18
2.29735364e+18
6.62102747e+16
9.22705961e+16
1.31795886e+17
1.81982809e+17
2.40272143e+17
3.04507299e+17
3.72952703e+17
4.44230141e+17
5.17237948e+17
5.91084276e+17
6.65040156e+17
7.38508108e+17
8.11000784e+17
8.82125351e+17
9.51571068e+17
1.01909858e+18
1.08453031e+18
1.14774158e+18
1.20865255e+18
1.26722075e+18
1.32343443e+18
1.37730665e+18
1.42887007e+18
1.47817253e+18
1.52527319e+18
1.57023943e+18
1.61314414e+18
1.65406363e+18
1.6930759e+18
1.73025928e+18
1.76569139e+18
1.79944835e+18
1.83160417e+18
1.86223041e+18
1.89139585e+18
1.91916635e+18
1.94560482e+18
1.97077115e+18
1.99472232e+18
2.01751247e+18
2.039193e+18
2.0598127e+18
2.07941794e+18
2.09805278e+18
2.11575914e+18
2.13257695e+18
2.14854434e+18
2.16369771e+18
2.17807196e+18
2.19170055e+18
2.20461568e+18
2.21684834e+18
2.22842847e+18
2.239385e+18
2.24974592e+18
2.25958891e+18
2.26884456e+18
2.27753877e+18
2.28569675e+18
2.29334305e+18
2.30050166e+18
2.30719605e+18
2.31344921e+18
2.31928365e+18
2.32472144e+18
2.32978418e+18
2.33449295e+18
2.33886833e+18
2.34293026e+18
2.34669802e+18
2.35019014e+18
2.35342424e+18
2.35641695e+18
2.35918376e+18
2.36173884e+18
2.36409488e+18
2.36626293e+18
2.36825215e+18
2.37006967e+18
2.37172034e+18
2.37320654e+18
2.37452798e+18
2.37568152e+18
2.37666097e+18
2.377457e+18
2.37805699e+18
2.37844499e+18
2.37860175e+18
2.37850471e+18
2.37812828e+18
2.37744401e+18
2.37642101e+18
2.3750265e+18
2.37322644e+18
2.37098643e+18
2.36827268e+18
2.36505322e+18
2.36129913e+18
2.35698597e+18
2.35209422e+18
7.06777656e+16
1.00150412e+17
1.4495557e+17
2.01331023e+17
2.6614596e+17
3.36916952e+17
4.11718616e+17
4.89055598e+17
5.6774991e+17
6.46859934e+17
7.25626931e+17
8.03439994e+17
8.79811907e+17
9.54360998e+17
1.02679628e+18
1.09690446e+18
1.16453828e+18
1.22960585e+18
1.29206106e+18
1.35189498e+18
1.4091283e+18
1.46380473e+18
1.51598543e+18
1.56574426e+18
1.61316387e+18
1.65833256e+18
1.70134169e+18
1.74228369e+18
1.78125051e+18
1.81833246e+18
1.85361735e+18
1.8871899e+18
1.91913132e+18
1.94951914e+18
1.97842704e+18
2.00592487e+18
2.03207874e+18
2.05695106e+18
2.08060077e+18
2.10308346e+18
2.12445159e+18
2.1447547e+18
2.16403958e+18
2.1823505e+18
2.19972939e+18
2.21621606e+18
2.23184835e+18
2.24666229e+18
2.26069233e+18
2.27397141e+18
2.28653114e+18
2.29840192e+18
2.30961304e+18
2.32019276e+18
2.33016839e+18
2.33962051e+18
2.3484774e+18
2.3567642e+18
2.36450532e+18
2.37172456e+18
2.37844516e+18
2.38468986e+18
2.39048093e+18
2.39584016e+18
2.40078892e+18
2.40534807e+18
2.40953799e+18
2.41337852e+18
2.41688887e+18
2.4200876e+18
2.42299245e+18
2.42562031e+18
2.42798703e+18
2.43010731e+18
2.43199456e+18
2.43366069e+18
2.43511597e+18
2.43636881e+18
2.4374256e+18
2.43829049e+18
2.43896522e+18
2.43944892e+18
2.43973793e+18
2.43982568e+18
2.43970257e+18
2.43935586e+18
2.43876968e+18
2.43792503e+18
2.43679994e+18
2.43536961e+18
2.43360676e+18
2.43148204e+18
2.42896462e+18
2.42602285e+18
2.4226252e+18
2.41874127e+18
2.41434295e+18
2.40940574e+18
2.40391002e+18
2.39784167e+18
7.51845795e+16
1.08163019e+17
1.58317304e+17
2.20886721e+17
2.92165654e+17
3.69344656e+17
4.50308503e+17
5.33445942e+17
6.17506968e+17
7.01507809e+17
7.8467015e+17
8.66381321e+17
9.46166317e+17
1.02366623e+18
1.09862036e+18
1.17085051e+18
1.24024712e+18
1.30675675e+18
1.37037111e+18
1.43111744e+18
1.48905018e+18
1.544244e+18
1.596788e+18
1.64678087e+18
1.6943271e+18
1.73953395e+18
1.7825091e+18
1.82335884e+18
1.86218685e+18
1.89909321e+18
1.93417382e+18
1.96752001e+18
1.99921838e+18
2.0293507e+18
2.05799403e+18
2.08522081e+18
2.11109904e+18
2.13569256e+18
2.15906122e+18
2.18126119e+18
2.2023452e+18
2.22236279e+18
2.2413606e+18
2.25938254e+18
2.27647011e+18
2.29266255e+18
2.30799706e+18
2.32250902e+18
2.33623215e+18
2.34919866e+18
2.3614394e+18
2.372984e+18
2.38386099e+18
2.39409787e+18
2.40372122e+18
2.41281414e+18
2.4213021e+18
2.4292094e+18
2.43655971e+18
2.44337606e+18
2.44968099e+18
2.45549651e+18
2.46084421e+18
2.4657452e+18
2.47022015e+18
2.47428926e+18
2.47797224e+18
2.48128824e+18
2.48425579e+18
2.48689276e+18
2.48921619e+18
2.49124225e+18
2.49298607e+18
2.49446162e+18
2.49568157e+18
2.49665706e+18
2.49739762e+18
2.49791092e+18
2.4982026e+18
2.49827608e+18
2.4981324e+18
2.49777002e+18
2.49718469e+18
2.4963693e+18
2.49531378e+18
2.49400507e+18
2.49242709e+18
2.49056082e+18
2.48838443e+18
2.48587355e+18
2.48300158e+18
2.47974016e+18
2.4760598e+18
2.47193065e+18
2.46732338e+18
2.46221028e+18
2.45656646e+18
2.45037113e+18
2.44360895e+18
2.43627062e+18
7.97230115e+16
1.16272038e+17
1.71806996e+17
2.40538122e+17
3.18184446e+17
4.01612713e+17
4.88519782e+17
5.77182074e+17
6.66284011e+17
7.54808807e+17
8.41969496e+17
9.27163252e+17
1.0099386e+18
1.08996974e+18
1.16703508e+18
1.24099874e+18
1.31179428e+18
1.37941052e+18
1.44387929e+18
1.50526502e+18
1.56365594e+18
1.61915688e+18
1.67188345e+18
1.72195736e+18
1.76950287e+18
1.81464397e+18
1.85750237e+18
1.89819604e+18
1.9368382e+18
1.97353671e+18
2.00839368e+18
2.04150533e+18
2.07296204e+18
2.10284846e+18
2.13124373e+18
2.15822173e+18
2.1838514e+18
2.20819707e+18
2.23131877e+18
2.25327254e+18
2.27411078e+18
2.29388254e+18
2.31263381e+18
2.33040782e+18
2.34724523e+18
2.36318447e+18
2.37826187e+18
2.39251193e+18
2.40596747e+18
2.41865983e+18
2.43061898e+18
2.4418737e+18
2.45245168e+18
2.46237962e+18
2.47168331e+18
2.48044835e+18
2.48859688e+18
2.49615244e+18
2.5031379e+18
2.50957559e+18
2.51548734e+18
2.52089449e+18
2.52581795e+18
2.53027817e+18
2.53429518e+18
2.53788855e+18
2.54107734e+18
2.54388005e+18
2.54631458e+18
2.54839812e+18
2.55014707e+18
2.5515769e+18
2.55270206e+18
2.55353582e+18
2.5540901e+18
2.55437534e+18
2.55440031e+18
2.5541719e+18
2.55369501e+18
2.55297229e+18
2.55200401e+18
2.55078789e+18
2.54931896e+18
2.54758942e+18
2.54558859e+18
2.54330282e+18
2.54071559e+18
2.53780754e+18
2.53455663e+18
2.53093849e+18
2.52692673e+18
2.52249347e+18
2.51761001e+18
2.51224763e+18
2.50637858e+18
2.49997716e+18
2.49302101e+18
2.4854924e+18
2.47737964e+18
2.46867768e+18
8.42855301e+16
1.24445152e+17
1.85361203e+17
2.60191448e+17
3.44081118e+17
4.3357683e+17
5.26191366e+17
6.2009448e+17
7.13913164e+17
8.06607759e+17
8.97393772e+17
9.85689313e+17
1.07107668e+18
1.15327197e+18
1.23209988e+18
1.30747217e+18
1.37936921e+18
1.44782423e+18
1.51291007e+18
1.57472817e+18
1.63339956e+18
1.6890577e+18
1.74184279e+18
1.79189742e+18
1.83936332e+18
1.88437898e+18
1.92707797e+18
1.96758783e+18
2.00602943e+18
2.0425166e+18
2.07715607e+18
2.11004753e+18
2.14128386e+18
2.17095143e+18
2.19913048e+18
2.22589548e+18
2.25131553e+18
2.2754548e+18
2.2983729e+18
2.32012524e+18
2.34076346e+18
2.36033571e+18
2.37888701e+18
2.39645953e+18
2.41309289e+18
2.42882441e+18
2.44368933e+18
2.45772106e+18
2.47095134e+18
2.48341045e+18
2.49512737e+18
2.5061299e+18
2.51644478e+18
2.52609784e+18
2.53511403e+18
2.5435229e+18
2.5513604e+18
2.55859096e+18
2.56523675e+18
2.57131937e+18
2.57685998e+18
2.58187925e+18
2.58639745e+18
2.59043441e+18
2.59400954e+18
2.59714177e+18
2.59984956e+18
2.60215079e+18
2.60406274e+18
2.60560196e+18
2.6067842e+18
2.60762429e+18
2.608136e+18
2.60833189e+18
2.60822318e+18
2.60781957e+18
2.60712907e+18
2.6061578e+18
2.60490984e+18
2.60338704e+18
2.60158885e+18
2.59951214e+18
2.5971511e+18
2.5944971e+18
2.59153864e+18
2.58826133e+18
2.5846479e+18
2.58067834e+18
2.57633009e+18
2.57157833e+18
2.56639645e+18
2.56075652e+18
2.55463007e+18
2.54798892e+18
2.54080621e+18
2.53305759e+18
2.5247225e+18
2.51578564e+18
2.50623826e+18
2.49607899e+18
8.88650152e+16
1.3265399e+17
1.98926012e+17
2.79768644e+17
3.69756638e+17
4.6512156e+17
5.63197745e+17
6.62055677e+17
7.60274303e+17
8.5680175e+17
9.50866918e+17
1.04191911e+18
1.12958333e+18
1.21362487e+18
1.29392014e+18
1.37043226e+18
1.44319056e+18
1.51227347e+18
1.57779459e+18
1.6398913e+18
1.69871583e+18
1.75442822e+18
1.80719108e+18
1.85716558e+18
1.90450869e+18
1.94937121e+18
1.99189652e+18
2.03221988e+18
2.07046806e+18
2.10675935e+18
2.14120368e+18
2.17390298e+18
2.20495154e+18
2.2344365e+18
2.2624383e+18
2.28903125e+18
2.31428395e+18
2.3382598e+18
2.36101749e+18
2.38261137e+18
2.40309194e+18
2.42250614e+18
2.4408978e+18
2.45830789e+18
2.47477486e+18
2.49033489e+18
2.50502216e+18
2.51886906e+18
2.53190636e+18
2.54416345e+18
2.55566844e+18
2.56644832e+18
2.57652907e+18
2.58593575e+18
2.5946926e+18
2.60282306e+18
2.61037633e+18
2.61730729e+18
2.62363739e+18
2.62938755e+18
2.63457826e+18
2.63922956e+18
2.64336109e+18
2.64699206e+18
2.65014128e+18
2.65282709e+18
2.65506733e+18
2.65687929e+18
2.65827962e+18
2.65928427e+18
2.65990834e+18
2.66016601e+18
2.66007038e+18
2.65963331e+18
2.6588653e+18
2.6577753e+18
2.65637054e+18
2.65465633e+18
2.65263591e+18
2.65031025e+18
2.64767788e+18
2.64473476e+18
2.6414741e+18
2.63788631e+18
2.63395888e+18
2.62967643e+18
2.62502072e+18
2.61997079e+18
2.61450318e+18
2.60859227e+18
2.60221073e+18
2.5953301e+18
2.58792156e+18
2.57995685e+18
2.57140935e+18
2.56225532e+18
2.55247535e+18
2.54205577e+18
2.53099011e+18
2.51928e+18
9.34548984e+16
1.40873882e+17
2.12455938e+17
2.99205297e+17
3.95131041e+17
4.96156092e+17
5.99443511e+17
7.02973276e+17
8.05286492e+17
9.05329854e+17
1.00235605e+18
1.09585481e+18
1.18550142e+18
1.2711161e+18
1.35263092e+18
1.43006263e+18
1.50349035e+18
1.57303749e+18
1.63885728e+18
1.70112138e+18
1.76001111e+18
1.81571091e+18
1.86840342e+18
1.91826615e+18
1.96546912e+18
2.01017342e+18
2.05253038e+18
2.09268128e+18
2.13075729e+18
2.16687981e+18
2.20116082e+18
2.23370342e+18
2.26460243e+18
2.29394495e+18
2.32181104e+18
2.34827426e+18
2.37340226e+18
2.39725738e+18
2.41989708e+18
2.44137449e+18
2.46173882e+18
2.48103578e+18
2.49930793e+18
2.51659504e+18
2.53293438e+18
2.54836099e+18
2.56290792e+18
2.57660649e+18
2.58948644e+18
2.60157612e+18
2.61290268e+18
2.62349215e+18
2.63336961e+18
2.64255926e+18
2.65108453e+18
2.65896812e+18
2.66626223e+18
2.67291744e+18
2.6789545e+18
2.68439367e+18
2.6892548e+18
2.69355731e+18
2.69732021e+18
2.70056212e+18
2.70330125e+18
2.70555534e+18
2.70734164e+18
2.70867684e+18
2.70957698e+18
2.71005738e+18
2.71013252e+18
2.7098159e+18
2.70911995e+18
2.70805582e+18
2.70663327e+18
2.70486046e+18
2.70274382e+18
2.70028781e+18
2.69749476e+18
2.69436469e+18
2.69089517e+18
2.68708108e+18
2.68291457e+18
2.6783849e+18
2.6734784e+18
2.66817848e+18
2.66246566e+18
2.65631773e+18
2.64970999e+18
2.64261561e+18
2.63500611e+18
2.62685196e+18
2.61812345e+18
2.60879159e+18
2.59882933e+18
2.58821283e+18
2.57692302e+18
2.5649471e+18
2.55228014e+18
2.53892601e+18
9.80492364e+16
1.49083563e+17
2.25912883e+17
3.18448744e+17
4.20140646e+17
5.26610459e+17
6.34858434e+17
7.42783814e+17
8.48900495e+17
9.52164333e+17
1.05186146e+18
1.14753011e+18
1.23890212e+18
1.32585696e+18
1.4083849e+18
1.48655738e+18
1.56050316e+18
1.63038957e+18
1.69640775e+18
1.75876154e+18
1.8176591e+18
1.87330682e+18
1.92590515e+18
1.9756457e+18
2.0227095e+18
2.06726609e+18
2.10947308e+18
2.14947628e+18
2.18741e+18
2.22339761e+18
2.25755217e+18
2.28997716e+18
2.32076724e+18
2.35000896e+18
2.37778152e+18
2.40415739e+18
2.42920306e+18
2.45297953e+18
2.47554295e+18
2.49694508e+18
2.51723377e+18
2.53645339e+18
2.55464516e+18
2.57184755e+18
2.58809657e+18
2.60342601e+18
2.61786776e+18
2.63145197e+18
2.64420729e+18
2.65616104e+18
2.66733935e+18
2.67776735e+18
2.68746923e+18
2.69646837e+18
2.70478743e+18
2.71244837e+18
2.71950659e+18
2.72590831e+18
2.7316736e+18
2.73682208e+18
2.74137297e+18
2.74534506e+18
2.74875678e+18
2.75162614e+18
2.75397076e+18
2.75580778e+18
2.75715386e+18
2.75802508e+18
2.75843687e+18
2.75840391e+18
2.75794002e+18
2.75705806e+18
2.75576971e+18
2.75408542e+18
2.75201417e+18
2.74956332e+18
2.74673842e+18
2.74354303e+18
2.73997853e+18
2.73604392e+18
2.73173567e+18
2.72704752e+18
2.7219704e+18
2.71649229e+18
2.71059815e+18
2.70426995e+18
2.69748674e+18
2.69022475e+18
2.6824577e+18
2.67415714e+18
2.66529298e+18
2.65583414e+18
2.64574938e+18
2.63500838e+18
2.62358292e+18
2.61144832e+18
2.59858505e+18
2.58498034e+18
2.57062994e+18
2.55553913e+18
1.02642734e+17
1.57264845e+17
2.39265182e+17
3.37456388e+17
4.44735572e+17
5.56432175e+17
6.69393121e+17
7.81447361e+17
8.91092342e+17
9.97303233e+17
1.09940837e+18
1.19700147e+18
1.28987583e+18
1.37797322e+18
1.46134354e+18
1.54011297e+18
1.61445898e+18
1.68459109e+18
1.7507363e+18
1.81312829e+18
1.87199962e+18
1.92757632e+18
1.98007438e+18
2.02969744e+18
2.07663572e+18
2.1210655e+18
2.16314925e+18
2.20303606e+18
2.24086228e+18
2.27675237e+18
2.31081971e+18
2.34316757e+18
2.37388995e+18
2.40307247e+18
2.43079313e+18
2.45712315e+18
2.48212756e+18
2.50586597e+18
2.52839302e+18
2.54975901e+18
2.57001032e+18
2.58918988e+18
2.60733751e+18
2.62449032e+18
2.640683e+18
2.65594809e+18
2.67031629e+18
2.6838166e+18
2.69647661e+18
2.70832263e+18
2.71937985e+18
2.72967248e+18
2.73922389e+18
2.74805667e+18
2.75619273e+18
2.76365334e+18
2.77049717e+18