/*--------------------------------*- C++ -*----------------------------------*\
| =========                 |                                                 |
| \\      /  F ield         | OpenFOAM Extend Project: Open source CFD        |
|  \\    /   O peration     | Version:  1.6-ext                               |
|   \\  /    A nd           | Web:      www.extend-project.de                 |
|    \\/     M anipulation  |                                                 |
\*---------------------------------------------------------------------------*/
FoamFile
{
    version     2.0;
    format      ascii;
    class       volScalarField;
    location    "4000";
    object      prec8;
}
// * * * * * * * * * * * * * * * * * * * * * * * * * * * * * * * * * * * * * //

dimensions      [0 -3 0 0 0 0 0];

internalField   nonuniform List<scalar> 
40000
(
6.06807819e+12
7.19783174e+12
8.3354044e+12
9.48104609e+12
1.06348862e+13
1.17972067e+13
1.29670486e+13
1.41447339e+13
1.53302202e+13
1.65234598e+13
1.77243965e+13
1.89329652e+13
2.01490906e+13
2.13726875e+13
2.26036601e+13
2.38419027e+13
2.50872994e+13
2.63397239e+13
2.75990399e+13
2.88651011e+13
3.01377507e+13
3.14168221e+13
3.27021384e+13
3.39935123e+13
3.52907461e+13
3.65936318e+13
3.79019506e+13
3.92154731e+13
4.05339588e+13
4.18571564e+13
4.3184803e+13
4.45166245e+13
4.58523349e+13
4.71916366e+13
4.85342198e+13
4.98797622e+13
5.12279293e+13
5.25783735e+13
5.39307344e+13
5.52846381e+13
5.66396975e+13
5.79955114e+13
5.93516647e+13
6.0707728e+13
6.20632575e+13
6.34177942e+13
6.47708643e+13
6.61219785e+13
6.7470632e+13
6.88163038e+13
7.01584571e+13
7.14965386e+13
7.2829978e+13
7.41588215e+13
7.54822274e+13
7.6799179e+13
7.81090145e+13
7.94110719e+13
8.07046696e+13
8.19891048e+13
8.32636544e+13
8.45275742e+13
8.5780099e+13
8.70204422e+13
8.82477954e+13
8.94613284e+13
9.06601882e+13
9.18434991e+13
9.30103618e+13
9.41598534e+13
9.52910264e+13
9.64029085e+13
9.74945021e+13
9.85647833e+13
9.96127022e+13
1.00637181e+14
1.01637116e+14
1.02611373e+14
1.03558789e+14
1.04478174e+14
1.05368305e+14
1.0622793e+14
1.07055764e+14
1.0785049e+14
1.08610762e+14
1.09335195e+14
1.10022375e+14
1.10670852e+14
1.11279145e+14
1.11845736e+14
1.12369078e+14
1.12847589e+14
1.13279662e+14
1.13663659e+14
1.13997921e+14
1.14280765e+14
1.14510496e+14
1.14685402e+14
1.14803764e+14
1.1486385e+14
7.19754816e+12
8.5417705e+12
9.89539131e+12
1.12598667e+13
1.26333345e+13
1.40157971e+13
1.54072009e+13
1.68074423e+13
1.8216442e+13
1.96341326e+13
2.10604504e+13
2.24953296e+13
2.39386991e+13
2.53904801e+13
2.68505841e+13
2.83189125e+13
2.97953556e+13
3.1279792e+13
3.27720888e+13
3.42721007e+13
3.57796703e+13
3.72946278e+13
3.88167909e+13
4.03459644e+13
4.18819406e+13
4.34244984e+13
4.4973404e+13
4.65284098e+13
4.80892549e+13
4.96556643e+13
5.1227349e+13
5.28040059e+13
5.43853168e+13
5.59709489e+13
5.75605541e+13
5.91537686e+13
6.07502128e+13
6.2349491e+13
6.39511908e+13
6.5554883e+13
6.71601213e+13
6.87664418e+13
7.03733627e+13
7.19803841e+13
7.35869875e+13
7.51926356e+13
7.6796772e+13
7.83988206e+13
7.99981858e+13
8.15942515e+13
8.31863815e+13
8.47739184e+13
8.63561836e+13
8.79335257e+13
8.95059648e+13
9.10711834e+13
9.26281715e+13
9.41760973e+13
9.57141349e+13
9.72414379e+13
9.8757136e+13
1.00260334e+14
1.0175011e+14
1.03225518e+14
1.04685587e+14
1.06129316e+14
1.07555682e+14
1.08963631e+14
1.10352083e+14
1.11719931e+14
1.13066038e+14
1.14389237e+14
1.15688333e+14
1.16962099e+14
1.1820928e+14
1.19428585e+14
1.20618694e+14
1.21778251e+14
1.22905869e+14
1.24000125e+14
1.25059559e+14
1.26082678e+14
1.27067949e+14
1.28013804e+14
1.28918635e+14
1.29780795e+14
1.30598598e+14
1.31370321e+14
1.32094199e+14
1.3276843e+14
1.33391173e+14
1.33960552e+14
1.34474657e+14
1.34931548e+14
1.35329257e+14
1.35665794e+14
1.35939149e+14
1.36147297e+14
1.36288202e+14
1.36359818e+14
8.33481158e+12
9.89486394e+12
1.14677938e+13
1.30513752e+13
1.46456626e+13
1.62503144e+13
1.78650716e+13
1.94897396e+13
2.11241693e+13
2.2768242e+13
2.44218577e+13
2.60849257e+13
2.77573584e+13
2.94390665e+13
3.11299553e+13
3.28299225e+13
3.45388564e+13
3.62566343e+13
3.79831217e+13
3.97181718e+13
4.14616247e+13
4.32133069e+13
4.49730312e+13
4.67405961e+13
4.85157858e+13
5.02983697e+13
5.20881021e+13
5.38847219e+13
5.56879524e+13
5.74975009e+13
5.93130583e+13
6.11342983e+13
6.2960878e+13
6.47924364e+13
6.66285946e+13
6.84689549e+13
7.03131011e+13
7.21605969e+13
7.40109864e+13
7.58637934e+13
7.77185203e+13
7.95746486e+13
8.14316377e+13
8.32889247e+13
8.51459241e+13
8.70020271e+13
8.88566012e+13
9.07089899e+13
9.25585121e+13
9.44044617e+13
9.62461075e+13
9.80826918e+13
9.99134304e+13
1.01738326e+14
1.03559148e+14
1.05372313e+14
1.07176299e+14
1.08970036e+14
1.10752528e+14
1.12522778e+14
1.14279763e+14
1.16022432e+14
1.17749704e+14
1.19460469e+14
1.21153586e+14
1.22827883e+14
1.24482156e+14
1.26115169e+14
1.27725656e+14
1.29312316e+14
1.30873816e+14
1.32408787e+14
1.33915828e+14
1.35393503e+14
1.36840337e+14
1.38254822e+14
1.3963541e+14
1.40980517e+14
1.42288521e+14
1.43557758e+14
1.44786525e+14
1.45973079e+14
1.47115635e+14
1.48212367e+14
1.49261404e+14
1.50260837e+14
1.5120871e+14
1.52103028e+14
1.52941753e+14
1.53722808e+14
1.54444075e+14
1.55103401e+14
1.55698601e+14
1.56227456e+14
1.56687724e+14
1.57077136e+14
1.57393405e+14
1.57634228e+14
1.5779728e+14
1.57880229e+14
9.48051626e+12
1.1259437e+13
1.30514721e+13
1.48560464e+13
1.66727478e+13
1.85011467e+13
2.03408844e+13
2.21916702e+13
2.40532701e+13
2.59254939e+13
2.78081834e+13
2.97012018e+13
3.16044255e+13
3.35177375e+13
3.5441022e+13
3.73741605e+13
3.93170286e+13
4.12694941e+13
4.32314145e+13
4.52026362e+13
4.71829931e+13
4.9172306e+13
5.11703816e+13
5.3177012e+13
5.51919743e+13
5.72150298e+13
5.92459238e+13
6.12843851e+13
6.33301253e+13
6.53828385e+13
6.74422006e+13
6.95078687e+13
7.15794807e+13
7.36566546e+13
7.5738988e+13
7.78260569e+13
7.9917416e+13
8.20125969e+13
8.41111085e+13
8.62124355e+13
8.83160382e+13
9.04213516e+13
9.25277848e+13
9.46347203e+13
9.67415134e+13
9.88474917e+13
1.00951954e+14
1.03054171e+14
1.05153381e+14
1.07248796e+14
1.09339594e+14
1.11424921e+14
1.13503892e+14
1.15575707e+14
1.17644391e+14
1.19705245e+14
1.21756162e+14
1.23795762e+14
1.25822854e+14
1.27836272e+14
1.29834835e+14
1.31817332e+14
1.33782518e+14
1.35729112e+14
1.37655799e+14
1.39561226e+14
1.41444004e+14
1.43302708e+14
1.45135874e+14
1.46942001e+14
1.48719549e+14
1.50466938e+14
1.5218255e+14
1.53864726e+14
1.55511768e+14
1.57121934e+14
1.58693443e+14
1.60224469e+14
1.61713146e+14
1.63157561e+14
1.6455576e+14
1.65905744e+14
1.6720547e+14
1.6845285e+14
1.69645753e+14
1.70782003e+14
1.71859381e+14
1.72875627e+14
1.73828441e+14
1.74715484e+14
1.75534382e+14
1.76282725e+14
1.76958078e+14
1.77557974e+14
1.78079925e+14
1.7852142e+14
1.78879924e+14
1.79152882e+14
1.79337709e+14
1.79431806e+14
1.06350413e+13
1.26341454e+13
1.46472968e+13
1.66744227e+13
1.87150472e+13
2.07686994e+13
2.28349486e+13
2.49134193e+13
2.70037917e+13
2.91057954e+13
3.12192009e+13
3.33438101e+13
3.54794477e+13
3.76259537e+13
3.9783177e+13
4.19509702e+13
4.41291855e+13
4.63176711e+13
4.8516269e+13
5.07248121e+13
5.29431234e+13
5.51710136e+13
5.7408281e+13
5.96547097e+13
6.19100691e+13
6.41741132e+13
6.64465794e+13
6.87271885e+13
7.10156435e+13
7.33116287e+13
7.56148096e+13
7.79248313e+13
8.02413186e+13
8.25638742e+13
8.48920786e+13
8.72254888e+13
8.95636375e+13
9.19060322e+13
9.42521544e+13
9.66014581e+13
9.89533697e+13
1.01307286e+14
1.03662575e+14
1.06018573e+14
1.08374584e+14
1.10729881e+14
1.13083701e+14
1.1543525e+14
1.17783695e+14
1.20128169e+14
1.22467768e+14
1.24801549e+14
1.27128528e+14
1.29446776e+14
1.31762873e+14
1.34071167e+14
1.36368949e+14
1.3865449e+14
1.40926364e+14
1.43183224e+14
1.45423721e+14
1.47646476e+14
1.49850075e+14
1.52033064e+14
1.54193945e+14
1.5633118e+14
1.58443186e+14
1.60528339e+14
1.62584969e+14
1.64611364e+14
1.66605767e+14
1.68566377e+14
1.70491346e+14
1.72378782e+14
1.74226748e+14
1.76033259e+14
1.77796286e+14
1.79513751e+14
1.81183531e+14
1.82803457e+14
1.84371311e+14
1.85884832e+14
1.87341712e+14
1.88739597e+14
1.90076091e+14
1.91348757e+14
1.92555115e+14
1.93692649e+14
1.94758807e+14
1.95751006e+14
1.96666635e+14
1.97503053e+14
1.98257603e+14
1.98927602e+14
1.99510351e+14
2.00003126e+14
2.00403181e+14
2.00707737e+14
2.00913971e+14
2.01019028e+14
1.1798672e+13
1.40193772e+13
1.62555122e+13
1.85068341e+13
2.07729348e+13
2.30533455e+13
2.53475951e+13
2.76552432e+13
2.99758934e+13
3.23091968e+13
3.46548479e+13
3.70125788e+13
3.93821518e+13
4.17633523e+13
4.41559821e+13
4.65598536e+13
4.89747847e+13
5.14005949e+13
5.38371017e+13
5.62841176e+13
5.87414481e+13
6.12088894e+13
6.36862271e+13
6.61732345e+13
6.86696717e+13
7.11752843e+13
7.36898021e+13
7.62129386e+13
7.874439e+13
8.12838334e+13
8.3830927e+13
8.6385308e+13
8.89465921e+13
9.15143723e+13
9.40882177e+13
9.66676722e+13
9.92522537e+13
1.01841452e+14
1.04434729e+14
1.07031516e+14
1.09631213e+14
1.12233188e+14
1.14836775e+14
1.17441272e+14
1.20045942e+14
1.22650009e+14
1.25252661e+14
1.27853044e+14
1.30450262e+14
1.33043378e+14
1.35631412e+14
1.38213336e+14
1.40788077e+14
1.43353459e+14
1.45915839e+14
1.48471037e+14
1.51015485e+14
1.53546974e+14
1.56063782e+14
1.58564347e+14
1.61047134e+14
1.63510591e+14
1.65953128e+14
1.68373111e+14
1.70768855e+14
1.73138628e+14
1.75480649e+14
1.77793084e+14
1.8007405e+14
1.82321615e+14
1.84533791e+14
1.86708544e+14
1.88843786e+14
1.90937378e+14
1.9298713e+14
1.94990802e+14
1.96946101e+14
1.98850686e+14
2.00702163e+14
2.02498092e+14
2.04235983e+14
2.059133e+14
2.07527462e+14
2.09075845e+14
2.10555784e+14
2.11964576e+14
2.13299488e+14
2.14557752e+14
2.15736577e+14
2.16833151e+14
2.17844644e+14
2.18768216e+14
2.19601013e+14
2.20340172e+14
2.20982819e+14
2.21526058e+14
2.21966964e+14
2.22302567e+14
2.22529826e+14
2.22645642e+14
1.29706022e+13
1.54152691e+13
1.78762536e+13
2.03534952e+13
2.28466841e+13
2.53553867e+13
2.78791211e+13
3.04174046e+13
3.296978e+13
3.55358278e+13
3.81151692e+13
4.07074644e+13
4.33124082e+13
4.59297239e+13
4.85591575e+13
5.12004718e+13
5.38534415e+13
5.65178482e+13
5.91934766e+13
6.18801113e+13
6.45775337e+13
6.72855194e+13
7.00038369e+13
7.27322446e+13
7.54704904e+13
7.82183093e+13
8.09754226e+13
8.37415362e+13
8.65163397e+13
8.92995048e+13
9.20906841e+13
9.48895098e+13
9.76955922e+13
1.00508519e+14
1.03327851e+14
1.06153127e+14
1.08983853e+14
1.1181951e+14
1.14659545e+14
1.17503375e+14
1.20350381e+14
1.23199909e+14
1.26051267e+14
1.28903724e+14
1.3175651e+14
1.34608811e+14
1.37459769e+14
1.4030848e+14
1.43153995e+14
1.45995313e+14
1.48831386e+14
1.5166111e+14
1.54483328e+14
1.57296824e+14
1.60104324e+14
1.62905759e+14
1.65696551e+14
1.68473898e+14
1.71235716e+14
1.73980189e+14
1.76705578e+14
1.79410146e+14
1.82092118e+14
1.84749675e+14
1.87380942e+14
1.89983986e+14
1.9255682e+14
1.95097396e+14
1.97603607e+14
2.00073288e+14
2.02504215e+14
2.04894108e+14
2.07240624e+14
2.09541366e+14
2.11793878e+14
2.13995648e+14
2.16144107e+14
2.18236633e+14
2.2027055e+14
2.22243131e+14
2.24151601e+14
2.25993137e+14
2.27764875e+14
2.29463909e+14
2.31087301e+14
2.32632082e+14
2.34095258e+14
2.3547382e+14
2.36764744e+14
2.37965005e+14
2.39071574e+14
2.40081431e+14
2.40991561e+14
2.41798956e+14
2.42500604e+14
2.43093479e+14
2.43574516e+14
2.4394059e+14
2.44188473e+14
2.44314832e+14
1.415115e+13
1.6821818e+13
1.95095687e+13
2.22145179e+13
2.49364662e+13
2.76750366e+13
3.04297599e+13
3.32001332e+13
3.59856561e+13
3.8785851e+13
4.16002733e+13
4.44285145e+13
4.72702009e+13
5.01249906e+13
5.29925684e+13
5.58726409e+13
5.8764932e+13
6.16691777e+13
6.45851226e+13
6.75125158e+13
7.04511078e+13
7.34006477e+13
7.63608811e+13
7.93315473e+13
8.23123777e+13
8.53030941e+13
8.83034068e+13
9.1313013e+13
9.43315953e+13
9.73588198e+13
1.00394335e+14
1.03437769e+14
1.0648873e+14
1.09546803e+14
1.12611546e+14
1.15682493e+14
1.18759148e+14
1.21840985e+14
1.24927445e+14
1.28017934e+14
1.31111822e+14
1.34208441e+14
1.37307081e+14
1.40406989e+14
1.43507369e+14
1.46607376e+14
1.49706117e+14
1.52802647e+14
1.55895969e+14
1.58985029e+14
1.62068715e+14
1.65145858e+14
1.68215222e+14
1.71275508e+14
1.74328357e+14
1.77375892e+14
1.8041286e+14
1.83435983e+14
1.86442839e+14
1.89431358e+14
1.92399592e+14
1.95345611e+14
1.98267453e+14
2.0116311e+14
2.04030509e+14
2.06867516e+14
2.0967193e+14
2.1244148e+14
2.15173831e+14
2.17866577e+14
2.20517246e+14
2.231233e+14
2.25682133e+14
2.28191073e+14
2.30647386e+14
2.33048273e+14
2.35390875e+14
2.37672275e+14
2.39889497e+14
2.42039513e+14
2.44119248e+14
2.46125578e+14
2.48055343e+14
2.49905346e+14
2.51672364e+14
2.53353157e+14
2.5494447e+14
2.56443048e+14
2.57845644e+14
2.59149027e+14
2.60349988e+14
2.6144535e+14
2.62431966e+14
2.63306714e+14
2.64066487e+14
2.64708171e+14
2.65228608e+14
2.65624558e+14
2.65892636e+14
2.66029299e+14
1.53402751e+13
1.82389771e+13
2.11554378e+13
2.40899283e+13
2.70423585e+13
3.00124186e+13
3.29996689e+13
3.60036047e+13
3.90236992e+13
4.20594308e+13
4.51102995e+13
4.81758344e+13
5.12555967e+13
5.43491788e+13
5.74562021e+13
6.0576313e+13
6.37091789e+13
6.68544844e+13
7.00119271e+13
7.3181214e+13
7.63620583e+13
7.95541764e+13
8.27572852e+13
8.59710999e+13
8.91953312e+13
9.24296838e+13
9.56738542e+13
9.89275285e+13
1.02190381e+14
1.05462071e+14
1.08742244e+14
1.12030525e+14
1.15326521e+14
1.18629815e+14
1.21939967e+14
1.2525651e+14
1.28578948e+14
1.31906754e+14
1.35239367e+14
1.3857619e+14
1.41916587e+14
1.45259882e+14
1.48605354e+14
1.51952237e+14
1.55299714e+14
1.58646918e+14
1.61992929e+14
1.65336768e+14
1.68677398e+14
1.7201372e+14
1.7534457e+14
1.78668716e+14
1.81984854e+14
1.85291607e+14
1.88589363e+14
1.91882577e+14
1.95165404e+14
1.9843411e+14
2.01685936e+14
2.0491855e+14
2.08129785e+14
2.11317511e+14
2.14479578e+14
2.17613781e+14
2.2071785e+14
2.23789443e+14
2.26826141e+14
2.29825447e+14
2.32784788e+14
2.35701512e+14
2.38572889e+14
2.41396114e+14
2.44168305e+14
2.46886507e+14
2.49547691e+14
2.5214876e+14
2.54686548e+14
2.57157828e+14
2.59559309e+14
2.61887648e+14
2.64139452e+14
2.66311283e+14
2.68399668e+14
2.70401107e+14
2.72312084e+14
2.74129074e+14
2.75848557e+14
2.77467031e+14
2.78981026e+14
2.80387112e+14
2.81681913e+14
2.82862111e+14
2.83924453e+14
2.84865738e+14
2.85682802e+14
2.86372486e+14
2.86931588e+14
2.87356799e+14
2.87644622e+14
2.87791327e+14
1.65379196e+13
1.96666669e+13
2.28137884e+13
2.59796824e+13
2.91643573e+13
3.23675727e+13
3.55889282e+13
3.88279308e+13
4.20840421e+13
4.53567103e+13
4.86453906e+13
5.19495583e+13
5.52687144e+13
5.86023884e+13
6.19501381e+13
6.53115476e+13
6.86862247e+13
7.20737976e+13
7.54739117e+13
7.8886226e+13
8.23104106e+13
8.57461433e+13
8.9193107e+13
9.26509873e+13
9.61194698e+13
9.95982379e+13
1.03086971e+14
1.06585341e+14
1.10093011e+14
1.13609635e+14
1.17134852e+14
1.20668284e+14
1.24209538e+14
1.27758199e+14
1.31313827e+14
1.34875958e+14
1.384441e+14
1.42017729e+14
1.45596287e+14
1.49179176e+14
1.52765763e+14
1.56355368e+14
1.59947265e+14
1.6354068e+14
1.67134786e+14
1.707287e+14
1.74321481e+14
1.77912124e+14
1.81499563e+14
1.85082658e+14
1.88660201e+14
1.92230906e+14
1.9579341e+14
1.99346264e+14
2.02888468e+14
2.0642691e+14
2.09955226e+14
2.13469254e+14
2.169659e+14
2.20442568e+14
2.23896868e+14
2.27326468e+14
2.30729021e+14
2.34102126e+14
2.37443314e+14
2.40750029e+14
2.44019634e+14
2.47249401e+14
2.50436514e+14
2.53578067e+14
2.56671066e+14
2.5971243e+14
2.62698992e+14
2.656275e+14
2.68494621e+14
2.71296946e+14
2.74030989e+14
2.76693196e+14
2.79279949e+14
2.81787572e+14
2.84212337e+14
2.86550478e+14
2.88798196e+14
2.90951671e+14
2.93007079e+14
2.94960602e+14
2.96808446e+14
2.98546855e+14
3.00172134e+14
3.01680656e+14
3.03068885e+14
3.0433338e+14
3.05470798e+14
3.0647789e+14
3.0735147e+14
3.0808838e+14
3.08685422e+14
3.09139272e+14
3.09446366e+14
3.09602829e+14
1.77440102e+13
2.11047819e+13
2.44845068e+13
2.78836794e+13
3.13023903e+13
3.47404639e+13
3.81975432e+13
4.16731559e+13
4.51667631e+13
4.86777941e+13
5.22056703e+13
5.57498212e+13
5.9309694e+13
6.28847591e+13
6.64745125e+13
7.00784756e+13
7.36961947e+13
7.73272383e+13
8.09711954e+13
8.46276727e+13
8.82962918e+13
9.19766866e+13
9.56685008e+13
9.93713856e+13
1.03084997e+14
1.06808992e+14
1.1054303e+14
1.14286766e+14
1.1803985e+14
1.21801926e+14
1.25572627e+14
1.29351573e+14
1.33138368e+14
1.369326e+14
1.40733833e+14
1.44541608e+14
1.48355437e+14
1.52174803e+14
1.55999153e+14
1.59827897e+14
1.63660404e+14
1.67495999e+14
1.71333956e+14
1.751735e+14
1.79013798e+14
1.8285396e+14
1.86693029e+14
1.90529985e+14
1.94363733e+14
1.98193108e+14
2.02016861e+14
2.05833663e+14
2.09642095e+14
2.13440647e+14
2.17226821e+14
2.21010016e+14
2.24783405e+14
2.28542428e+14
2.32283669e+14
2.36004269e+14
2.3970161e+14
2.43373157e+14
2.47016364e+14
2.50628634e+14
2.54207292e+14
2.57749574e+14
2.61252618e+14
2.64713462e+14
2.68129044e+14
2.714962e+14
2.74811664e+14
2.78072072e+14
2.81273964e+14
2.84413781e+14
2.87487876e+14
2.90492515e+14
2.93423879e+14
2.96278074e+14
2.99051139e+14
3.01739049e+14
3.0433773e+14
3.06843068e+14
3.09250923e+14
3.11557141e+14
3.13757575e+14
3.15848102e+14
3.17824639e+14
3.19683173e+14
3.21419772e+14
3.23030616e+14
3.2451201e+14
3.25860397e+14
3.27072363e+14
3.28144632e+14
3.29074031e+14
3.29857443e+14
3.30491723e+14
3.30973588e+14
3.31299466e+14
3.31465378e+14
1.89584602e+13
2.25531954e+13
2.61674461e+13
2.98017722e+13
3.34563272e+13
3.71309915e+13
4.08254505e+13
4.45392571e+13
4.82718795e+13
5.20227367e+13
5.57912249e+13
5.95767355e+13
6.33786682e+13
6.71964386e+13
7.10294832e+13
7.48772617e+13
7.87392579e+13
8.2614979e+13
8.65039546e+13
9.0405735e+13
9.43198892e+13
9.82460029e+13
1.02183676e+14
1.06132521e+14
1.10092158e+14
1.14062217e+14
1.18042331e+14
1.22032136e+14
1.26031266e+14
1.30039353e+14
1.34056023e+14
1.38080891e+14
1.42113561e+14
1.46153621e+14
1.50200641e+14
1.54254166e+14
1.58313718e+14
1.62378787e+14
1.6644883e+14
1.70523266e+14
1.74601474e+14
1.78682783e+14
1.82766477e+14
1.86851783e+14
1.90937869e+14
1.95023842e+14
1.99108739e+14
2.03191528e+14
2.07271098e+14
2.11346259e+14
2.15415733e+14
2.19478153e+14
2.23532055e+14
2.27575873e+14
2.31605526e+14
2.35632974e+14
2.39650983e+14
2.43654623e+14
2.47640169e+14
2.51604501e+14
2.55544779e+14
2.59458259e+14
2.63342198e+14
2.67193801e+14
2.7101019e+14
2.74788387e+14
2.78525307e+14
2.82217752e+14
2.85862409e+14
2.89455854e+14
2.92994545e+14
2.96474828e+14
2.99892941e+14
3.03245012e+14
3.0652707e+14
3.09735043e+14
3.12864769e+14
3.15912003e+14
3.18872424e+14
3.21741647e+14
3.24515234e+14
3.27188708e+14
3.29757573e+14
3.32217325e+14
3.34563481e+14
3.36791595e+14
3.38897286e+14
3.40876268e+14
3.4272437e+14
3.44437568e+14
3.46012008e+14
3.47444021e+14
3.48730135e+14
3.49867062e+14
3.5085167e+14
3.51680922e+14
3.52351775e+14
3.52861044e+14
3.53205207e+14
3.53380244e+14
2.018117e+13
2.40117626e+13
2.78624328e+13
3.17337761e+13
3.56259893e+13
3.95389974e+13
4.34725236e+13
4.74261465e+13
5.13993449e+13
5.53915335e+13
5.94020892e+13
6.34303717e+13
6.74757382e+13
7.15375534e+13
7.56151973e+13
7.97080691e+13
8.38155902e+13
8.79372051e+13
9.20723823e+13
9.62206129e+13
1.0038141e+14
1.04554307e+14
1.08738857e+14
1.12934628e+14
1.17141204e+14
1.2135818e+14
1.25585162e+14
1.29821763e+14
1.34067598e+14
1.38322286e+14
1.42585442e+14
1.46856677e+14
1.51135593e+14
1.55421779e+14
1.5971481e+14
1.64014239e+14
1.68319594e+14
1.72630379e+14
1.76946061e+14
1.81266072e+14
1.85589801e+14
1.89916592e+14
1.94245737e+14
1.98576473e+14
2.02907974e+14
2.07239349e+14
2.11569636e+14
2.15897796e+14
2.20222709e+14
2.24543169e+14
2.28857874e+14
2.33165426e+14
2.37464324e+14
2.41752954e+14
2.46025582e+14
2.50296766e+14
2.54558911e+14
2.58806745e+14
2.63036249e+14
2.6724405e+14
2.71427085e+14
2.75582405e+14
2.79707071e+14
2.8379809e+14
2.87852379e+14
2.91866748e+14
2.95837887e+14
2.99762363e+14
3.03636612e+14
3.07456943e+14
3.11219535e+14
3.14920442e+14
3.18555592e+14
3.22120794e+14
3.25611742e+14
3.2902402e+14
3.32353112e+14
3.35594408e+14
3.38743217e+14
3.41794777e+14
3.44744275e+14
3.47586856e+14
3.50317651e+14
3.52931793e+14
3.55424444e+14
3.57790823e+14
3.60026238e+14
3.62126113e+14
3.64086028e+14
3.65901748e+14
3.67569254e+14
3.69084765e+14
3.70444754e+14
3.71645937e+14
3.72685243e+14
3.73559748e+14
3.74266555e+14
3.74802635e+14
3.75164586e+14
3.75348405e+14
2.1412029e+13
2.54803235e+13
2.95692705e+13
3.36794747e+13
3.78111567e+13
4.19642734e+13
4.61385785e+13
5.03336734e+13
5.45490481e+13
5.87841153e+13
6.30382362e+13
6.73107428e+13
7.16009533e+13
7.5908185e+13
8.02317634e+13
8.45710286e+13
8.89253401e+13
9.32940794e+13
9.76766521e+13
1.02072488e+14
1.06481043e+14
1.10901794e+14
1.15334244e+14
1.19777916e+14
1.24232351e+14
1.28697108e+14
1.33171763e+14
1.37655901e+14
1.42149119e+14
1.46651018e+14
1.51161202e+14
1.55679276e+14
1.60204839e+14
1.64737481e+14
1.69276782e+14
1.73822301e+14
1.78373579e+14
1.8293013e+14
1.87491434e+14
1.9205694e+14
1.96626051e+14
2.01198126e+14
2.05772472e+14
2.10348338e+14
2.1492491e+14
2.19501305e+14
2.24076565e+14
2.28649654e+14
2.33219446e+14
2.37784723e+14
2.42344171e+14
2.46896368e+14
2.51439778e+14
2.5597275e+14
2.60487838e+14
2.65002228e+14
2.69508002e+14
2.73999573e+14
2.78472641e+14
2.8292359e+14
2.87349139e+14
2.91746136e+14
2.96111448e+14
3.00441883e+14
3.04734157e+14
3.08984868e+14
3.13190484e+14
3.17347332e+14
3.21451598e+14
3.25499324e+14
3.29486406e+14
3.33408601e+14
3.37261526e+14
3.41040661e+14
3.44741361e+14
3.48358857e+14
3.51888268e+14
3.5532461e+14
3.5866281e+14
3.6189772e+14
3.65024133e+14
3.68036806e+14
3.70930481e+14
3.73699912e+14
3.76339893e+14
3.78845293e+14
3.81211088e+14
3.83432406e+14
3.85504561e+14
3.87423096e+14
3.89183817e+14
3.90782829e+14
3.92216548e+14
3.93481702e+14
3.94575298e+14
3.9549455e+14
3.9623675e+14
3.9679908e+14
3.97178324e+14
3.97370575e+14
2.26509151e+13
2.6958704e+13
3.12877438e+13
3.56386251e+13
4.00115743e+13
4.4406567e+13
4.88233787e+13
5.32616281e+13
5.77208137e+13
6.22003455e+13
6.66995701e+13
7.12177932e+13
7.57542962e+13
8.03083506e+13
8.4879229e+13
8.94662133e+13
9.40686014e+13
9.86857117e+13
1.03316886e+14
1.07961493e+14
1.12618926e+14
1.17288608e+14
1.21969986e+14
1.26662535e+14
1.31365753e+14
1.3607916e+14
1.40802298e+14
1.45534724e+14
1.50276012e+14
1.55025745e+14
1.59783515e+14
1.64548918e+14
1.69321549e+14
1.74101001e+14
1.78886855e+14
1.83678681e+14
1.88476029e+14
1.93278426e+14
1.9808537e+14
2.02896323e+14
2.07710709e+14
2.12527903e+14
2.17347231e+14
2.22167957e+14
2.26989284e+14
2.31810341e+14
2.36630181e+14
2.41447772e+14
2.46261992e+14
2.51071619e+14
2.55875327e+14
2.60671677e+14
2.65459112e+14
2.70235944e+14
2.74992973e+14
2.7975003e+14
2.84498906e+14
2.89233726e+14
2.93949925e+14
2.98643654e+14
3.03311417e+14
3.07949866e+14
3.12555673e+14
3.17125452e+14
3.2165572e+14
3.26142865e+14
3.3058313e+14
3.34972608e+14
3.39307232e+14
3.43582775e+14
3.47794852e+14
3.51938918e+14
3.56010274e+14
3.60004071e+14
3.63915314e+14
3.67738877e+14
3.71469505e+14
3.75101831e+14
3.7863039e+14
3.82049634e+14
3.85353955e+14
3.88537706e+14
3.91595226e+14
3.94520876e+14
3.97309066e+14
3.99954299e+14
4.02451209e+14
4.04794608e+14
4.0697953e+14
4.09001283e+14
4.10855489e+14
4.12538127e+14
4.14045554e+14
4.15374511e+14
4.16522092e+14
4.17485673e+14
4.1826277e+14
4.18850826e+14
4.19246884e+14
4.1944721e+14
2.38976961e+13
2.84467172e+13
3.30176198e+13
3.76109607e+13
4.22269559e+13
4.68655867e+13
5.15266403e+13
5.62097452e+13
6.09144034e+13
6.56400189e+13
7.03859221e+13
7.51513915e+13
7.99356716e+13
8.47379886e+13
8.95575625e+13
9.43936174e+13
9.92453899e+13
1.04112135e+14
1.0899313e+14
1.1388768e+14
1.18795119e+14
1.23714809e+14
1.28646145e+14
1.33588549e+14
1.38541474e+14
1.43504401e+14
1.48476833e+14
1.534583e+14
1.5844835e+14
1.63446546e+14
1.68452468e+14
1.734657e+14
1.78485836e+14
1.83512466e+14
1.88545177e+14
1.93583546e+14
1.98627135e+14
2.03675484e+14
2.08728109e+14
2.1378449e+14
2.1884407e+14
2.23906246e+14
2.28970363e+14
2.34035706e+14
2.39101497e+14
2.44166883e+14
2.49230929e+14
2.54292617e+14
2.59350828e+14
2.64404346e+14
2.69451838e+14
2.74491856e+14
2.79522824e+14
2.84543027e+14
2.89549887e+14
2.94545492e+14
2.99534814e+14
3.04511131e+14
3.09469278e+14
3.14404967e+14
3.19314369e+14
3.24193867e+14
3.29039896e+14
3.33848855e+14
3.38617047e+14
3.43340642e+14
3.4801566e+14
3.52637953e+14
3.57203204e+14
3.61706917e+14
3.66144421e+14
3.70510869e+14
3.74801244e+14
3.7901036e+14
3.83132874e+14
3.87163291e+14
3.91095979e+14
3.9492518e+14
3.98645025e+14
4.0224956e+14
4.05732761e+14
4.09088566e+14
4.123109e+14
4.15393716e+14
4.18331026e+14
4.21116953e+14
4.23745771e+14
4.26211962e+14
4.28510265e+14
4.30635738e+14
4.32583806e+14
4.3435031e+14
4.35931539e+14
4.37324244e+14
4.38525613e+14
4.39533196e+14
4.40344763e+14
4.40958069e+14
4.4137048e+14
4.41578521e+14
2.51522295e+13
2.99441648e+13
3.47586508e+13
3.95961947e+13
4.44569881e+13
4.93410057e+13
5.42480354e+13
5.91777069e+13
6.41295184e+13
6.91028624e+13
7.40970487e+13
7.91113258e+13
8.41448995e+13
8.91969492e+13
9.42666415e+13
9.93531425e+13
1.04455627e+14
1.09573285e+14
1.14705332e+14
1.19851007e+14
1.25009582e+14
1.30180361e+14
1.35362682e+14
1.40555917e+14
1.45759471e+14
1.50972781e+14
1.56195318e+14
1.61426576e+14
1.66666078e+14
1.71913369e+14
1.77168011e+14
1.8242958e+14
1.87697663e+14
1.9297185e+14
1.98251734e+14
2.03536897e+14
2.08826915e+14
2.14121342e+14
2.19419711e+14
2.24721522e+14
2.3002624e+14
2.35333284e+14
2.40642022e+14
2.45951764e+14
2.51261751e+14
2.56571152e+14
2.61879052e+14
2.67184446e+14
2.7248623e+14
2.77783191e+14
2.83074e+14
2.88357203e+14
2.93631212e+14
2.98894293e+14
3.04144559e+14
3.09380803e+14
3.14611537e+14
3.19829673e+14
3.25029739e+14
3.30207186e+14
3.35357958e+14
3.40478227e+14
3.45564233e+14
3.50612178e+14
3.55618163e+14
3.6057815e+14
3.65487939e+14
3.70343146e+14
3.75139203e+14
3.79871348e+14
3.84534623e+14
3.89123878e+14
3.93633776e+14
3.98058793e+14
4.02393231e+14
4.06631224e+14
4.10766753e+14
4.14793663e+14
4.18705677e+14
4.22496421e+14
4.26159448e+14
4.29688267e+14
4.33076379e+14
4.36317315e+14
4.39404678e+14
4.42332193e+14
4.4509376e+14
4.47683515e+14
4.50095888e+14
4.5232567e+14
4.54368072e+14
4.56218785e+14
4.57874019e+14
4.59330527e+14
4.60585587e+14
4.61636938e+14
4.62482625e+14
4.63120754e+14
4.63549084e+14
4.63764483e+14
2.6414363e+13
3.1450837e+13
3.65105749e+13
4.15940219e+13
4.67013331e+13
5.18324652e+13
5.69871961e+13
6.21651465e+13
6.7365802e+13
7.25885359e+13
7.78326314e+13
8.3097302e+13
8.83817108e+13
9.36849877e+13
9.90062441e+13
1.04344586e+14
1.09699126e+14
1.1506899e+14
1.20453327e+14
1.25851314e+14
1.31262159e+14
1.36685106e+14
1.42119438e+14
1.47564474e+14
1.53019572e+14
1.58484126e+14
1.63957568e+14
1.69439363e+14
1.74929005e+14
1.80426018e+14
1.85929948e+14
1.91440361e+14
1.96956838e+14
2.02478969e+14
2.08006348e+14
2.13538569e+14
2.19075217e+14
2.24615862e+14
2.30160055e+14
2.35707318e+14
2.41257137e+14
2.46808956e+14
2.52362169e+14
2.5791611e+14
2.63470047e+14
2.69023171e+14
2.74574591e+14
2.80123319e+14
2.85668268e+14
2.91208238e+14
2.96741905e+14
3.02267817e+14
3.07784377e+14
3.13289839e+14
3.1878229e+14
3.24258922e+14
3.29730681e+14
3.35190191e+14
3.4063172e+14
3.46050487e+14
3.51442223e+14
3.56802905e+14
3.62128581e+14
3.67415264e+14
3.72658858e+14
3.77855124e+14
3.8299964e+14
3.88087795e+14
3.93114769e+14
3.98075534e+14
4.0296485e+14
4.07777263e+14
4.12507113e+14
4.17148538e+14
4.2169548e+14
4.261417e+14
4.3048079e+14
4.34706187e+14
4.38811201e+14
4.4278903e+14
4.46632793e+14
4.50335564e+14
4.53890406e+14
4.57290416e+14
4.60528773e+14
4.63598793e+14
4.66493987e+14
4.69208128e+14
4.71735322e+14
4.74070076e+14
4.76207372e+14
4.78142731e+14
4.79872273e+14
4.8139274e+14
4.82701498e+14
4.83796473e+14
4.84676004e+14
4.85338588e+14
4.85782434e+14
4.86004842e+14
2.76839349e+13
3.29665136e+13
3.82731172e+13
4.36041198e+13
4.89596306e+13
5.43395775e+13
5.97437175e+13
6.51716516e+13
7.06228423e+13
7.60966351e+13
8.1592278e+13
8.71089433e+13
9.26457458e+13
9.82017617e+13
1.03776044e+14
1.09367637e+14
1.14975588e+14
1.20598958e+14
1.2623683e+14
1.31888316e+14
1.37552564e+14
1.43228756e+14
1.48916119e+14
1.5461392e+14
1.60321469e+14
1.66038118e+14
1.7176326e+14
1.77496329e+14
1.83236791e+14
1.88984148e+14
1.94737931e+14
2.00497694e+14
2.06263012e+14
2.12033475e+14
2.17808679e+14
2.23588227e+14
2.29371716e+14
2.35158731e+14
2.40948842e+14
2.46741592e+14
2.52536493e+14
2.58333013e+14
2.64130573e+14
2.69928535e+14
2.75726194e+14
2.81522768e+14
2.8731739e+14
2.93109097e+14
2.9889682e+14
3.04679376e+14
3.10455452e+14
3.16223602e+14
3.21982227e+14
3.27729572e+14
3.33463708e+14
3.39180182e+14
3.44892398e+14
3.5059272e+14
3.56275173e+14
3.61934752e+14
3.67566989e+14
3.73167669e+14
3.78732656e+14
3.84257776e+14
3.89738744e+14
3.95171117e+14
4.00550262e+14
4.05871337e+14
4.11129276e+14
4.16318787e+14
4.21434347e+14
4.264702e+14
4.31420364e+14
4.36278635e+14
4.41038597e+14
4.45693632e+14
4.50236939e+14
4.54661546e+14
4.58960339e+14
4.63126084e+14
4.67151459e+14
4.7102909e+14
4.74751594e+14
4.78311623e+14
4.81701919e+14
4.84915376e+14
4.87945101e+14
4.90784491e+14
4.93427308e+14
4.95867761e+14
4.98100582e+14
5.00121112e+14
5.01925356e+14
5.03510036e+14
5.04872593e+14
5.06011138e+14
5.06924318e+14
5.07611047e+14
5.08070041e+14
5.08299119e+14
2.89607738e+13
3.44909638e+13
4.00459901e+13
4.56261505e+13
5.12314999e+13
5.68619281e+13
6.25171604e+13
6.81967667e+13
7.39001756e+13
7.96266938e+13
8.53755253e+13
9.11457924e+13
9.69365552e+13
1.02746831e+14
1.08575609e+14
1.14421869e+14
1.20284592e+14
1.26162771e+14
1.32055424e+14
1.37961598e+14
1.43880376e+14
1.49810884e+14
1.55752291e+14
1.61703812e+14
1.6766471e+14
1.73634294e+14
1.79611922e+14
1.85596991e+14
1.91588945e+14
1.97587262e+14
2.03591456e+14
2.09601071e+14
2.15615675e+14
2.21634858e+14
2.2765822e+14
2.3368537e+14
2.39715918e+14
2.45749465e+14
2.51785599e+14
2.57823888e+14
2.63863865e+14
2.69905028e+14
2.75946824e+14
2.81988646e+14
2.88029816e+14
2.94069584e+14
3.00107109e+14
3.06141454e+14
3.12171575e+14
3.18196306e+14
3.24214353e+14
3.30224276e+14
3.36224484e+14
3.42213215e+14
3.48188531e+14
3.54144303e+14