/*--------------------------------*- C++ -*----------------------------------*\
| =========                 |                                                 |
| \\      /  F ield         | OpenFOAM Extend Project: Open source CFD        |
|  \\    /   O peration     | Version:  1.6-ext                               |
|   \\  /    A nd           | Web:      www.extend-project.de                 |
|    \\/     M anipulation  |                                                 |
\*---------------------------------------------------------------------------*/
FoamFile
{
    version     2.0;
    format      ascii;
    class       volScalarField;
    location    "4000";
    object      prec4_adj;
}
// * * * * * * * * * * * * * * * * * * * * * * * * * * * * * * * * * * * * * //

dimensions      [0 -2 -1 0 0 0 0];

internalField   nonuniform List<scalar> 
40000
(
2.06806343e+16
2.44197748e+16
2.81632042e+16
3.19572973e+16
3.58281282e+16
3.98106265e+16
4.38211026e+16
4.78909073e+16
5.20179071e+16
5.61995637e+16
6.04330921e+16
6.47155635e+16
6.90439742e+16
7.34152936e+16
7.78264996e+16
8.22746032e+16
8.67566677e+16
9.12698227e+16
9.58112739e+16
1.00378312e+17
1.04968316e+17
1.09578759e+17
1.14207209e+17
1.1885133e+17
1.23508883e+17
1.28177723e+17
1.32855796e+17
1.37541142e+17
1.42231886e+17
1.46926235e+17
1.51622476e+17
1.56318972e+17
1.61014153e+17
1.65706514e+17
1.70394612e+17
1.75077055e+17
1.79752504e+17
1.84419663e+17
1.89077278e+17
1.93724135e+17
1.98359057e+17
2.02980907e+17
2.07588597e+17
2.12181097e+17
2.16757464e+17
2.21316885e+17
2.25858753e+17
2.30382786e+17
2.34889237e+17
2.39379226e+17
2.43855295e+17
2.4832233e+17
2.52789091e+17
2.57270781e+17
2.61739706e+17
2.66174302e+17
2.70572638e+17
2.7493277e+17
2.79252737e+17
2.83530562e+17
2.87764253e+17
2.91951798e+17
2.96091162e+17
3.00180286e+17
3.04217083e+17
3.08199434e+17
3.12125185e+17
3.15992142e+17
3.19798067e+17
3.23540674e+17
3.27217625e+17
3.30826524e+17
3.34364913e+17
3.37830265e+17
3.41219983e+17
3.4453139e+17
3.47761723e+17
3.5090813e+17
3.53967657e+17
3.56937243e+17
3.59813709e+17
3.62593747e+17
3.65273903e+17
3.67850564e+17
3.70319941e+17
3.7267804e+17
3.74920644e+17
3.77043282e+17
3.790412e+17
3.80909329e+17
3.82642253e+17
3.84234191e+17
3.85678973e+17
3.86970044e+17
3.88100487e+17
3.89063062e+17
3.89850312e+17
3.90454574e+17
3.90868324e+17
3.91083543e+17
2.44532395e+16
2.88911337e+16
3.33323298e+16
3.79755859e+16
4.27024206e+16
4.75441314e+16
5.2514187e+16
5.76146593e+16
6.28437569e+16
6.81968884e+16
7.3667269e+16
7.92464681e+16
8.49249127e+16
9.06923355e+16
9.65381589e+16
1.02451806e+17
1.08422941e+17
1.14441644e+17
1.20498529e+17
1.2658482e+17
1.32692385e+17
1.3881375e+17
1.44942091e+17
1.51071213e+17
1.57195519e+17
1.63309979e+17
1.69410088e+17
1.75491833e+17
1.81551654e+17
1.87586407e+17
1.93593334e+17
1.99570031e+17
2.05514422e+17
2.1142473e+17
2.17299466e+17
2.23137401e+17
2.28937563e+17
2.3469922e+17
2.40421883e+17
2.46105303e+17
2.51749479e+17
2.57354676e+17
2.62921442e+17
2.68450644e+17
2.73943514e+17
2.79401707e+17
2.8482738e+17
2.90223294e+17
2.95592947e+17
3.00940744e+17
3.06272219e+17
3.11594313e+17
3.16915747e+17
3.22247498e+17
3.27565073e+17
3.32818497e+17
3.38006105e+17
3.43126301e+17
3.48177568e+17
3.53158466e+17
3.58067628e+17
3.62903764e+17
3.67665655e+17
3.7235215e+17
3.76962158e+17
3.81494647e+17
3.85948634e+17
3.90323177e+17
3.94617369e+17
3.98830325e+17
4.02961173e+17
4.07009041e+17
4.10973044e+17
4.14852268e+17
4.18645754e+17
4.22352474e+17
4.25971315e+17
4.29501045e+17
4.32940288e+17
4.36287483e+17
4.39540844e+17
4.4269831e+17
4.45757485e+17
4.4871557e+17
4.51569287e+17
4.5431479e+17
4.56947562e+17
4.59462314e+17
4.61852868e+17
4.64112048e+17
4.66231573e+17
4.68201981e+17
4.70012575e+17
4.71651438e+17
4.73105513e+17
4.74360771e+17
4.75402513e+17
4.7621561e+17
4.76785252e+17
4.7709596e+17
2.82419615e+16
3.34029402e+16
3.87389699e+16
4.41440729e+16
4.9699805e+16
5.54341356e+16
6.13664995e+16
6.75072568e+16
7.3858444e+16
8.04148592e+16
8.71654712e+16
9.40949686e+16
1.01185257e+17
1.08416757e+17
1.15769449e+17
1.23223641e+17
1.30760504e+17
1.38362406e+17
1.46013101e+17
1.53697803e+17
1.61403188e+17
1.69117341e+17
1.76829685e+17
1.84530876e+17
1.92212708e+17
1.99868006e+17
2.07490534e+17
2.15074896e+17
2.22616453e+17
2.30111254e+17
2.37555957e+17
2.44947781e+17
2.52284445e+17
2.59564131e+17
2.66785443e+17
2.7394738e+17
2.81049308e+17
2.88090949e+17
2.95072362e+17
3.01993945e+17
3.08856433e+17
3.15660905e+17
3.224088e+17
3.29101941e+17
3.35742565e+17
3.42333365e+17
3.48877544e+17
3.55378881e+17
3.61841819e+17
3.6827156e+17
3.746742e+17
3.81056882e+17
3.87427986e+17
3.93797358e+17
4.00151036e+17
4.06407999e+17
4.12566646e+17
4.18625606e+17
4.24583735e+17
4.30440134e+17
4.36194141e+17
4.41845339e+17
4.47393553e+17
4.52838845e+17
4.58181506e+17
4.6342205e+17
4.68561199e+17
4.73599871e+17
4.78539163e+17
4.83380329e+17
4.88124756e+17
4.92773937e+17
4.97329443e+17
5.01792875e+17
5.06165832e+17
5.10449852e+17
5.14646359e+17
5.18756589e+17
5.22781513e+17
5.26721745e+17
5.30577432e+17
5.34348132e+17
5.38032669e+17
5.41628971e+17
5.45133891e+17
5.48543e+17
5.5185037e+17
5.55048342e+17
5.58127289e+17
5.61075389e+17
5.63878422e+17
5.66519622e+17
5.68979609e+17
5.71236445e+17
5.73265839e+17
5.75041541e+17
5.76535974e+17
5.77720887e+17
5.78568655e+17
5.79051274e+17
3.20648485e+16
3.80827045e+16
4.41789873e+16
5.04035705e+16
5.68173568e+16
6.34674098e+16
7.03891537e+16
7.76036358e+16
8.51173667e+16
9.29240339e+16
1.01007272e+17
1.09343725e+17
1.17905869e+17
1.26664322e+17
1.35589566e+17
1.44653126e+17
1.5382831e+17
1.63090611e+17
1.7241787e+17
1.81790285e+17
1.91190312e+17
2.00602513e+17
2.10013377e+17
2.19411126e+17
2.28785535e+17
2.38127748e+17
2.47430126e+17
2.56686097e+17
2.65890029e+17
2.75037124e+17
2.84123317e+17
2.93145196e+17
3.02099936e+17
3.10985242e+17
3.19799301e+17
3.28540747e+17
3.37208636e+17
3.45802423e+17
3.54321953e+17
3.62767456e+17
3.71139549e+17
3.79439245e+17
3.87667973e+17
3.95827598e+17
4.03920455e+17
4.11949386e+17
4.19917795e+17
4.27829704e+17
4.35689827e+17
4.43503655e+17
4.51277557e+17
4.59018904e+17
4.66736201e+17
4.74439252e+17
4.82130283e+17
4.89687079e+17
4.97107893e+17
5.04391449e+17
5.11536949e+17
5.18544086e+17
5.25413049e+17
5.32144521e+17
5.38739682e+17
5.45200195e+17
5.51528195e+17
5.57726274e+17
5.63797457e+17
5.69745177e+17
5.7557324e+17
5.81285786e+17
5.86887246e+17
5.92382283e+17
5.97775733e+17
6.03072529e+17
6.08277615e+17
6.13395849e+17
6.18431886e+17
6.23390046e+17
6.28274164e+17
6.33087409e+17
6.37832089e+17
6.42509419e+17
6.47119267e+17
6.51659863e+17
6.56127486e+17
6.60516112e+17
6.64817054e+17
6.69018573e+17
6.73105507e+17
6.77058906e+17
6.80855741e+17
6.84468685e+17
6.87866054e+17
6.91011936e+17
6.93866581e+17
6.96387093e+17
6.98528485e+17
7.00244863e+17
7.01491412e+17
7.02223601e+17
3.59331042e+16
4.27546336e+16
4.96552536e+16
5.67222569e+16
6.40238584e+16
7.16255257e+16
7.95785947e+16
8.79140721e+16
9.66418114e+16
1.05753306e+17
1.15226187e+17
1.2502897e+17
1.35125204e+17
1.45476679e+17
1.5604569e+17
1.66796475e+17
1.77696036e+17
1.88714518e+17
1.99825272e+17
2.11004752e+17
2.22232291e+17
2.33489832e+17
2.44761637e+17
2.5603401e+17
2.67295024e+17
2.78534292e+17
2.89742744e+17
3.00912452e+17
3.12036464e+17
3.23108675e+17
3.34123716e+17
3.45076859e+17
3.55963949e+17
3.66781341e+17
3.7752586e+17
3.88194768e+17
3.98785744e+17
4.09296871e+17
4.19726638e+17
4.30073942e+17
4.40338101e+17
4.5051888e+17
4.60616513e+17
4.70631738e+17
4.80565844e+17
4.90420712e+17
5.00198878e+17
5.09903595e+17
5.19538911e+17
5.29109749e+17
5.38622009e+17
5.48082672e+17
5.5749992e+17
5.66883264e+17
5.7625852e+17
5.85452942e+17
5.94464682e+17
6.03292695e+17
6.11936735e+17
6.20397362e+17
6.28675948e+17
6.36774667e+17
6.44696489e+17
6.52445162e+17
6.60025186e+17
6.67441783e+17
6.74700862e+17
6.81808968e+17
6.8877323e+17
6.95601296e+17
7.02301252e+17
7.08881536e+17
7.15350834e+17
7.21717957e+17
7.27991703e+17
7.34180698e+17
7.40293208e+17
7.46336933e+17
7.52318765e+17
7.58244515e+17
7.64118607e+17
7.69943732e+17
7.75720463e+17
7.81446832e+17
7.87117873e+17
7.92725119e+17
7.98256096e+17
8.03693786e+17
8.09016119e+17
8.14195498e+17
8.19198413e+17
8.23985192e+17
8.28509959e+17
8.32720865e+17
8.36560692e+17
8.39967854e+17
8.42877913e+17
8.45225332e+17
8.46946163e+17
8.47977648e+17
3.98594476e+16
4.74227116e+16
5.51412377e+16
6.30719858e+16
7.12946382e+16
7.98907006e+16
8.89249922e+16
9.84361325e+16
1.0843553e+17
1.18911592e+17
1.29836033e+17
1.4117017e+17
1.52870173e+17
1.64890924e+17
1.77188606e+17
1.89722242e+17
2.02454479e+17
2.15351853e+17
2.28384727e+17
2.41527041e+17
2.54755958e+17
2.68051478e+17
2.81396057e+17
2.94774239e+17
3.08172335e+17
3.21578134e+17
3.34980656e+17
3.48369945e+17
3.617369e+17
3.7507313e+17
3.88370851e+17
4.01622796e+17
4.14822152e+17
4.27962523e+17
4.41037895e+17
4.54042628e+17
4.66971456e+17
4.79819495e+17
4.92582268e+17
5.05255728e+17
5.17836299e+17
5.30320916e+17
5.42707074e+17
5.54992885e+17
5.67177136e+17
5.79259359e+17
5.91239899e+17
6.03119998e+17
6.14901876e+17
6.26588824e+17
6.38185304e+17
6.49697054e+17
6.61131197e+17
6.72496347e+17
6.83823974e+17
6.94936571e+17
7.05808814e+17
7.16440336e+17
7.26831903e+17
7.36985427e+17
7.46903946e+17
7.5659162e+17
7.66053702e+17
7.75296506e+17
7.84327375e+17
7.93154624e+17
8.01787488e+17
8.10236051e+17
8.18511165e+17
8.26624351e+17
8.34587693e+17
8.42413705e+17
8.50115181e+17
8.57705026e+17
8.65196058e+17
8.72600781e+17
8.79931131e+17
8.8719818e+17
8.94411812e+17
9.01580349e+17
9.08710139e+17
9.15805098e+17
9.22866199e+17
9.29890929e+17
9.36872688e+17
9.4380017e+17
9.50656706e+17
9.5741962e+17
9.64059596e+17
9.70540116e+17
9.76817013e+17
9.82838199e+17
9.88543658e+17
9.93865787e+17
9.98730191e+17
1.00305699e+18
1.00676274e+18
1.00976273e+18
1.0119743e+18
1.01331696e+18
4.37668057e+16
5.20823882e+16
6.06201598e+16
6.94337033e+16
7.86113477e+16
8.82472081e+16
9.84160442e+16
1.09161163e+17
1.20493776e+17
1.32398787e+17
1.4484275e+17
1.57781402e+17
1.71165659e+17
1.84945846e+17
1.99074371e+17
2.13507209e+17
2.28204549e+17
2.43130895e+17
2.58254841e+17
2.73548676e+17
2.88987903e+17
3.04550758e+17
3.20217751e+17
3.35971242e+17
3.51795088e+17
3.67674329e+17
3.83594937e+17
3.99543612e+17
4.15507626e+17
4.31474703e+17
4.47432932e+17
4.63370718e+17
4.79276751e+17
4.95139998e+17
5.10949718e+17
5.2669548e+17
5.42367212e+17
5.57955242e+17
5.73450357e+17
5.8884387e+17
6.04127685e+17
6.19294377e+17
6.34337263e+17
6.4925049e+17
6.64029116e+17
6.78669196e+17
6.93167873e+17
7.07523472e+17
7.21735591e+17
7.35805201e+17
7.49734742e+17
7.63528231e+17
7.77191349e+17
7.90731546e+17
8.0415811e+17
8.17356136e+17
8.30246216e+17
8.42829267e+17
8.5510765e+17
8.67085168e+17
8.78767037e+17
8.90159862e+17
9.01271602e+17
9.12111519e+17
9.22690125e+17
9.33019115e+17
9.4311129e+17
9.52980461e+17
9.62641344e+17
9.72109436e+17
9.81400864e+17
9.90532222e+17
9.99520376e+17
1.00838224e+18
1.01713454e+18
1.0257935e+18
1.03437453e+18
1.04289187e+18
1.05135818e+18
1.05978403e+18
1.06817748e+18
1.07654345e+18
1.08488313e+18
1.09319334e+18
1.10146581e+18
1.10968643e+18
1.11783452e+18
1.1258821e+18
1.13379312e+18
1.14152288e+18
1.14901752e+18
1.15621376e+18
1.16303889e+18
1.16941124e+18
1.17524114e+18
1.18043245e+18
1.18488481e+18
1.18849642e+18
1.19116789e+18
1.19280282e+18
4.76826866e+16
5.67275793e+16
6.6082083e+16
7.57950214e+16
8.5960543e+16
9.66815789e+16
1.08039032e+17
1.20078064e+17
1.32808311e+17
1.46211246e+17
1.60249469e+17
1.74875071e+17
1.90036003e+17
2.05680363e+17
2.21758951e+17
2.38226556e+17
2.55042387e+17
2.72169971e+17
2.89576759e+17
3.07233586e+17
3.25114103e+17
3.43194217e+17
3.61451593e+17
3.79865222e+17
3.98415061e+17
4.1708175e+17
4.35846389e+17
4.54690381e+17
4.73595324e+17
4.92542951e+17
5.11515104e+17
5.30493744e+17
5.49460986e+17
5.68399152e+17
5.87290841e+17
6.06119016e+17
6.24867095e+17
6.43519049e+17
6.62059504e+17
6.80473849e+17
6.9874834e+17
7.16870208e+17
7.34827758e+17
7.52610477e+17
7.70209135e+17
7.87615881e+17
8.04824342e+17
8.21829718e+17
8.38628877e+17
8.55220444e+17
8.71604893e+17
8.87784632e+17
9.03764079e+17
9.19549735e+17
9.35150233e+17
9.50482217e+17
9.65431699e+17
9.80001485e+17
9.9419607e+17
1.00802162e+18
1.02148594e+18
1.03459841e+18
1.04736999e+18
1.05981308e+18
1.07194153e+18
1.08377048e+18
1.09531635e+18
1.10659663e+18
1.11762983e+18
1.12843528e+18
1.13903297e+18
1.14944337e+18
1.15968715e+18
1.16978495e+18
1.17975709e+18
1.18962318e+18
1.1994018e+18
1.20911003e+18
1.21876297e+18
1.22837323e+18
1.23795032e+18
1.24750003e+18
1.25702374e+18
1.26651763e+18
1.27597197e+18
1.28537025e+18
1.29468834e+18
1.30389372e+18
1.3129447e+18
1.3217897e+18
1.33036678e+18
1.33860335e+18
1.34641623e+18
1.35371213e+18
1.36038875e+18
1.3663365e+18
1.37144102e+18
1.37558623e+18
1.37865863e+18
1.38054841e+18
5.16060468e+16
6.13552793e+16
7.15214976e+16
8.2148042e+16
9.33323177e+16
1.05182413e+17
1.17781863e+17
1.31175301e+17
1.45369896e+17
1.60344142e+17
1.7605809e+17
1.92462116e+17
2.09503292e+17
2.27129449e+17
2.45291443e+17
2.6394412e+17
2.83046485e+17
3.02561378e+17
3.2245492e+17
3.42695872e+17
3.63255001e+17
3.84104509e+17
4.05217543e+17
4.2656781e+17
4.48129274e+17
4.6987595e+17
4.91781768e+17
5.1382051e+17
5.35965799e+17
5.58191136e+17
5.8046997e+17
6.02775804e+17
6.2508231e+17
6.47363471e+17
6.6959372e+17
6.91748096e+17
7.13802388e+17
7.35733286e+17
7.57518527e+17
7.79137031e+17
8.00569033e+17
8.21796207e+17
8.42801782e+17
8.63570653e+17
8.8408948e+17
9.04346781e+17
9.24333025e+17
9.4404071e+17
9.6346444e+17
9.82600999e+17
1.00144942e+18
1.02001103e+18
1.03828952e+18
1.05629098e+18
1.07402388e+18
1.09144221e+18
1.10839999e+18
1.12490241e+18
1.14095651e+18
1.15657114e+18
1.17175696e+18
1.18652632e+18
1.20089326e+18
1.21487341e+18
1.22848389e+18
1.24174325e+18
1.25467134e+18
1.26728917e+18
1.27961878e+18
1.29168305e+18
1.30350552e+18
1.31511014e+18
1.32652101e+18
1.33776211e+18
1.34885693e+18
1.35982808e+18
1.37069689e+18
1.38148292e+18
1.39220342e+18
1.40287274e+18
1.41350169e+18
1.42409684e+18
1.43465977e+18
1.44518625e+18
1.45566542e+18
1.46607888e+18
1.47639986e+18
1.48659231e+18
1.49661012e+18
1.5063964e+18
1.51588299e+18
1.5249901e+18
1.53362649e+18
1.5416899e+18
1.54906828e+18
1.55564159e+18
1.56128446e+18
1.56586954e+18
1.56927198e+18
1.57137113e+18
5.5536441e+16
6.59644241e+16
7.69356725e+16
8.84878029e+16
1.00719274e+17
1.13740104e+17
1.27633516e+17
1.42441826e+17
1.58169299e+17
1.74792125e+17
1.92269179e+17
2.10550782e+17
2.29584739e+17
2.49319959e+17
2.6970827e+17
2.90705008e+17
3.12268884e+17
3.34361463e+17
3.56946482e+17
3.79989162e+17
4.03455574e+17
4.27312125e+17
4.51525155e+17
4.76060657e+17
5.00884114e+17
5.25960419e+17
5.51253896e+17
5.76728372e+17
6.02347312e+17
6.28073982e+17
6.53871647e+17
6.79703786e+17
7.05534308e+17
7.31327776e+17
7.57049625e+17
7.82666369e+17
8.08145801e+17
8.33457171e+17
8.58571361e+17
8.83461032e+17
9.08100759e+17
9.32467159e+17
9.56538989e+17
9.80297243e+17
1.00372523e+18
1.02680865e+18
1.04953566e+18
1.07189688e+18
1.09388552e+18
1.11549735e+18
1.13673075e+18
1.15758675e+18
1.17806903e+18
1.19818393e+18
1.2179404e+18
1.23733137e+18
1.25618338e+18
1.27450432e+18
1.29230403e+18
1.30959423e+18
1.32638853e+18
1.3427023e+18
1.35855264e+18
1.37395828e+18
1.38893951e+18
1.40351804e+18
1.41771692e+18
1.43156037e+18
1.44507362e+18
1.45828273e+18
1.47121435e+18
1.48389551e+18
1.4963533e+18
1.50861456e+18
1.52070552e+18
1.53265136e+18
1.54447577e+18
1.55620041e+18
1.56784437e+18
1.57942352e+18
1.5909498e+18
1.60243055e+18
1.61386762e+18
1.6252566e+18
1.63658591e+18
1.64783588e+18
1.65897786e+18
1.66997333e+18
1.68077306e+18
1.69131639e+18
1.7015307e+18
1.71133115e+18
1.72062068e+18
1.72929066e+18
1.73722198e+18
1.74428696e+18
1.75035212e+18
1.7552816e+18
1.75894182e+18
1.76120363e+18
5.94738466e+16
7.05551188e+16
8.2323591e+16
9.48112456e+16
1.08115798e+17
1.22346544e+17
1.37584127e+17
1.53867341e+17
1.71197471e+17
1.89549134e+17
2.08881182e+17
2.29145066e+17
2.50290289e+17
2.72267395e+17
2.95029248e+17
3.18531202e+17
3.42730697e+17
3.67586568e+17
3.93058314e+17
4.19105433e+17
4.45686879e+17
4.7276069e+17
5.00283747e+17
5.2821169e+17
5.56498951e+17
5.85098879e+17
6.1396395e+17
6.43046029e+17
6.72296667e+17
7.01667425e+17
7.311102e+17
7.60577552e+17
7.90023018e+17
8.19401405e+17
8.48669063e+17
8.77784136e+17
9.06706778e+17
9.35399343e+17
9.63826554e+17
9.9195564e+17
1.01975645e+18
1.04720154e+18
1.07426626e+18
1.10092878e+18
1.12717018e+18
1.1529744e+18
1.17832836e+18
1.20322186e+18
1.22764766e+18
1.25160145e+18
1.27508183e+18
1.29809032e+18
1.3206313e+18
1.342712e+18
1.36434246e+18
1.38555324e+18
1.40614868e+18
1.42613954e+18
1.44553857e+18
1.46436042e+18
1.48262161e+18
1.50034046e+18
1.51753699e+18
1.53423286e+18
1.55045128e+18
1.56621686e+18
1.58155551e+18
1.5964943e+18
1.61106126e+18
1.62528521e+18
1.6391955e+18
1.65282177e+18
1.66619364e+18
1.67934039e+18
1.69229051e+18
1.70507135e+18
1.71770856e+18
1.73022558e+18
1.74264306e+18
1.75497815e+18
1.76724384e+18
1.77944819e+18
1.79159345e+18
1.80367526e+18
1.81568172e+18
1.82759247e+18
1.83937775e+18
1.85099753e+18
1.86240063e+18
1.87352406e+18
1.88429239e+18
1.89461753e+18
1.90439876e+18
1.91352329e+18
1.92186737e+18
1.92929822e+18
1.93567675e+18
1.94086108e+18
1.94471121e+18
1.94709159e+18
6.34184969e+16
7.51281629e+16
8.76852837e+16
1.01116549e+17
1.15517557e+17
1.30994846e+17
1.47624875e+17
1.65442224e+17
1.84445339e+17
2.04607917e+17
2.25889552e+17
2.48243427e+17
2.71620949e+17
2.95974012e+17
3.21255694e+17
3.47420031e+17
3.74421381e+17
4.02213657e+17
4.30749629e+17
4.59980385e+17
4.8985498e+17
5.20320286e+17
5.51321018e+17
5.82799905e+17
6.14697989e+17
6.46954996e+17
6.7950978e+17
7.12300786e+17
7.45266532e+17
7.78346082e+17
8.11479496e+17
8.44608249e+17
8.77675621e+17
9.10627034e+17
9.43410347e+17
9.75976113e+17
1.00827779e+18
1.04027189e+18
1.07191816e+18
1.1031796e+18
1.13402261e+18
1.16441697e+18
1.19433588e+18
1.22375596e+18
1.25265723e+18
1.2810231e+18
1.30884028e+18
1.3360988e+18
1.36279194e+18
1.38891616e+18
1.41447107e+18
1.43945938e+18
1.4638868e+18
1.48776202e+18
1.51109658e+18
1.53395566e+18
1.55612668e+18
1.57762335e+18
1.59846131e+18
1.61865808e+18
1.638233e+18
1.65720714e+18
1.67560328e+18
1.69344575e+18
1.71076038e+18
1.72757437e+18
1.74391615e+18
1.75981525e+18
1.77530212e+18
1.79040791e+18
1.80516423e+18
1.81960291e+18
1.83375568e+18
1.84765377e+18
1.86132759e+18
1.87480623e+18
1.88811695e+18
1.90128468e+18
1.91433135e+18
1.92727524e+18
1.94013028e+18
1.95290521e+18
1.96560282e+18
1.97821902e+18
1.99074195e+18
2.00315106e+18
2.01541618e+18
2.0274966e+18
2.03934025e+18
2.050883e+18
2.06204806e+18
2.07274569e+18
2.08287327e+18
2.0923158e+18
2.10094697e+18
2.10863104e+18
2.11522547e+18
2.12058449e+18
2.12456368e+18
2.12702292e+18
6.73707775e+16
7.96847575e+16
9.30214121e+16
1.07402699e+17
1.22921143e+17
1.39679087e+17
1.57747784e+17
1.77157298e+17
1.97903472e+17
2.19959514e+17
2.43286066e+17
2.67837971e+17
2.93567975e+17
3.20428207e+17
3.48370313e+17
3.773449e+17
4.07300762e+17
4.38184137e+17
4.69938162e+17
5.02502564e+17
5.35813607e+17
5.6980426e+17
6.04404557e+17
6.39542095e+17
6.75142629e+17
7.11130732e+17
7.47430475e+17
7.83966095e+17
8.20662652e+17
8.57446622e+17
8.94246449e+17
9.30993029e+17
9.67620122e+17
1.00406471e+18
1.04026725e+18
1.07617196e+18
1.11172691e+18
1.14688418e+18
1.1815999e+18
1.21583431e+18
1.24955171e+18
1.2827205e+18
1.31531302e+18
1.34730559e+18
1.37867837e+18
1.40941525e+18
1.43950381e+18
1.4689352e+18
1.49770404e+18
1.52580831e+18
1.55324928e+18
1.58003142e+18
1.60616226e+18
1.63165235e+18
1.65651511e+18
1.6808463e+18
1.70442143e+18
1.72725708e+18
1.7493717e+18
1.77078553e+18
1.79152057e+18
1.81160046e+18
1.83105046e+18
1.8498973e+18
1.86816914e+18
1.88589543e+18
1.90310679e+18
1.91983483e+18
1.93611202e+18
1.95197145e+18
1.9674466e+18
1.98257108e+18
1.99737828e+18
2.01190108e+18
2.02617137e+18
2.04021964e+18
2.05407449e+18
2.067762e+18
2.0813052e+18
2.09472333e+18
2.10803115e+18
2.12123812e+18
2.13434763e+18
2.14735605e+18
2.16025188e+18
2.17301482e+18
2.18561485e+18
2.19801132e+18
2.21015213e+18
2.22197304e+18
2.23339707e+18
2.24433418e+18
2.25468136e+18
2.26432297e+18
2.27313189e+18
2.2809712e+18
2.28769676e+18
2.2931607e+18
2.2972159e+18
2.29971918e+18
7.13311626e+16
8.42263267e+16
9.83330122e+16
1.13669215e+17
1.30323825e+17
1.48394083e+17
1.67945499e+17
1.89003573e+17
2.11561755e+17
2.35592893e+17
2.61058448e+17
2.87914184e+17
3.16112873e+17
3.45605008e+17
3.76338453e+17
4.08257662e+17
4.41302886e+17
4.75409595e+17
5.10508194e+17
5.46524079e+17
5.83377955e+17
6.20986422e+17
6.59262715e+17
6.9811757e+17
7.37460147e+17
7.77198963e+17
8.17242808e+17
8.57501601e+17
8.97887172e+17
9.38313954e+17
9.78699586e+17
1.01896541e+18
1.05903688e+18
1.09884386e+18
1.13832089e+18
1.1774073e+18
1.21604731e+18
1.25419006e+18
1.2917896e+18
1.3288048e+18
1.3651993e+18
1.40094136e+18
1.43600373e+18
1.47036354e+18
1.50400211e+18
1.53690481e+18
1.5690609e+18
1.60046342e+18
1.63110899e+18
1.6609977e+18
1.69013298e+18
1.71852148e+18
1.74617291e+18
1.77309995e+18
1.79931813e+18
1.82494952e+18
1.84976204e+18
1.87377506e+18
1.89700969e+18
1.91948872e+18
1.94123658e+18
1.96227926e+18
1.98264423e+18
2.00236036e+18
2.02145783e+18
2.03996802e+18
2.05792338e+18
2.07535728e+18
2.09230384e+18
2.10879773e+18
2.12487394e+18
2.14056746e+18
2.15591305e+18
2.17094481e+18
2.18569582e+18
2.20019769e+18
2.21448001e+18
2.22856984e+18
2.24249108e+18
2.25626381e+18
2.26990352e+18
2.2834204e+18
2.29681848e+18
2.31009477e+18
2.3232384e+18
2.33622965e+18
2.34903913e+18
2.36162684e+18
2.37394137e+18
2.3859192e+18
2.39748411e+18
2.4085469e+18
2.41900532e+18
2.42874448e+18
2.43763782e+18
2.44554873e+18
2.45233301e+18
2.45784217e+18
2.46192788e+18
2.46444522e+18
7.53001724e+16
8.87544057e+16
1.03621333e+17
1.19915966e+17
1.37723363e+17
1.57135204e+17
1.78211082e+17
2.00972025e+17
2.2540917e+17
2.51494761e+17
2.79190315e+17
3.08451135e+17
3.39228031e+17
3.71467355e+17
4.05110284e+17
4.40091955e+17
4.76340811e+17
5.13778317e+17
5.52319081e+17
5.91871357e+17
6.32337843e+17
6.73616724e+17
7.15602838e+17
7.58188916e+17
8.01266832e+17
8.44728786e+17
8.88468426e+17
9.32381838e+17
9.76368416e+17
1.0203316e+18
1.06417947e+18
1.10782522e+18
1.15118751e+18
1.19419067e+18
1.2367649e+18
1.27884626e+18
1.32037667e+18
1.36130387e+18
1.40158123e+18
1.44116766e+18
1.48002735e+18
1.51812964e+18
1.55544874e+18
1.59196355e+18
1.62765744e+18
1.66251801e+18
1.69653691e+18
1.72970962e+18
1.76203529e+18
1.79351655e+18
1.82415934e+18
1.85397276e+18
1.88296895e+18
1.91116291e+18
1.93857235e+18
1.96534143e+18
1.99123426e+18
2.01627278e+18
2.0404806e+18
2.06388286e+18
2.08650621e+18
2.10837873e+18
2.12952984e+18
2.14999028e+18
2.16979195e+18
2.18896788e+18
2.20755202e+18
2.2255792e+18
2.24308486e+18
2.26010492e+18
2.27667553e+18
2.29283278e+18
2.30861244e+18
2.32404957e+18
2.33917814e+18
2.35403057e+18
2.36863726e+18
2.38302601e+18
2.39722144e+18
2.41124429e+18
2.42511078e+18
2.43883177e+18
2.452412e+18
2.46584924e+18
2.47913343e+18
2.49224575e+18
2.50515779e+18
2.51783067e+18
2.53021424e+18
2.54224637e+18
2.55385242e+18
2.56494483e+18
2.57542313e+18
2.58517424e+18
2.59407331e+18
2.60198527e+18
2.6087671e+18
2.61427098e+18
2.61834856e+18
2.62085437e+18
7.92783442e+16
9.32705716e+16
1.08887738e+17
1.26143058e+17
1.45117877e+17
1.65898228e+17
1.88537853e+17
2.13053434e+17
2.39433671e+17
2.67649566e+17
2.97661396e+17
3.29422043e+17
3.62877807e+17
3.97967892e+17
4.34623492e+17
4.7276701e+17
5.12311713e+17
5.5316188e+17
5.95213443e+17
6.3835504e+17
6.82469345e+17
7.27434602e+17
7.73126228e+17
8.19418415e+17
8.66185669e+17
9.13304212e+17
9.60653245e+17
1.00811602e+18
1.05558077e+18
1.10294136e+18
1.1500979e+18
1.19695711e+18
1.24343256e+18
1.28944477e+18
1.33492128e+18
1.37979651e+18
1.42401166e+18
1.4675145e+18
1.51025911e+18
1.55220564e+18
1.59331999e+18
1.63357353e+18
1.67294282e+18
1.71140928e+18
1.74895892e+18
1.78558209e+18
1.82127322e+18
1.85603055e+18
1.88985595e+18
1.92275473e+18
1.95473539e+18
1.98580953e+18
2.01599164e+18
2.04529897e+18
2.07375137e+18
2.10138266e+18
2.12821073e+18
2.15413485e+18
2.1791809e+18
2.20337616e+18
2.22674927e+18
2.24933015e+18
2.27114996e+18
2.29224101e+18
2.31263669e+18
2.33237135e+18
2.35148023e+18
2.36999926e+18
2.38796496e+18
2.40541421e+18
2.42238402e+18
2.43891131e+18
2.45503258e+18
2.47078358e+18
2.48619892e+18
2.50131163e+18
2.51615269e+18
2.53075045e+18
2.54513011e+18
2.55931299e+18
2.57331593e+18
2.58715045e+18
2.60082204e+18
2.61432933e+18
2.62766318e+18
2.64080593e+18
2.65373043e+18
2.6663993e+18
2.67876407e+18
2.69076456e+18
2.70232826e+18
2.71337e+18
2.72379185e+18
2.73348337e+18
2.74232238e+18
2.75017633e+18
2.7569044e+18
2.76236052e+18
2.76639739e+18
2.76887e+18
8.32662125e+16
9.77763988e+16
1.1413364e+17
1.32350748e+17
1.52505753e+17
1.74679221e+17
1.98919266e+17
2.25238293e+17
2.5362218e+17
2.84039645e+17
3.16447951e+17
3.50795103e+17
3.87019892e+17
4.25051017e+17
4.64806166e+17
5.06191513e+17
5.49101838e+17
5.93421256e+17
6.3902448e+17
6.85778483e+17
7.33544404e+17
7.82179576e+17
8.31539542e+17
8.81479989e+17
9.31858517e+17
9.82536201e+17
1.03337893e+18
1.08425849e+18
1.13505345e+18
1.18564979e+18
1.23594132e+18
1.28582998e+18
1.3352259e+18
1.38404738e+18
1.43222077e+18
1.47968025e+18
1.52636753e+18
1.57223154e+18
1.61722806e+18
1.66131938e+18
1.70447388e+18
1.74666568e+18
1.7878743e+18
1.82808426e+18
1.86728479e+18
1.90546952e+18
1.94263616e+18
1.97878624e+18
2.01392488e+18
2.04806056e+18
2.08120487e+18
2.11337235e+18
2.14458028e+18
2.17484854e+18
2.20419938e+18
2.23265735e+18
2.26028858e+18
2.28697111e+18
2.3127329e+18
2.33760317e+18
2.36161232e+18
2.3847919e+18
2.40717454e+18
2.42879391e+18
2.44968462e+18
2.46988215e+18
2.4894227e+18
2.50834312e+18
2.52668072e+18
2.54447308e+18
2.56175787e+18
2.57857256e+18
2.59495417e+18
2.6109389e+18
2.62656179e+18
2.64185628e+18
2.65685374e+18
2.67158296e+18
2.68606956e+18
2.70033535e+18
2.7143977e+18
2.7282688e+18
2.7419549e+18
2.75545551e+18
2.7687626e+18
2.78185975e+18
2.79472135e+18
2.80731175e+18
2.81958455e+18
2.83148188e+18
2.84293386e+18
2.85385825e+18
2.86416025e+18
2.87373276e+18
2.88245698e+18
2.8902037e+18
2.89683518e+18
2.90220798e+18
2.90617674e+18
2.90859783e+18
8.72642933e+16
1.0227343e+17
1.19360465e+17
1.38539397e+17
1.59885568e+17
1.8347446e+17
2.09348837e+17
2.37516774e+17
2.6796066e+17
3.00645497e+17
3.35523331e+17
3.72534438e+17
4.11606781e+17
4.52654984e+17
4.95579633e+17
5.40267238e+17
5.86590985e+17
6.34412165e+17
6.83582138e+17
7.33944653e+17
7.85338323e+17
8.37599135e+17
8.90562835e+17
9.44067125e+17
9.97953594e+17
1.05206937e+18
1.10626844e+18
1.16041272e+18
1.21437279e+18
1.26802842e+18
1.32126884e+18
1.37399283e+18
1.42610867e+18
1.47753392e+18
1.52819515e+18
1.57802756e+18
1.62697458e+18
1.67498742e+18
1.7220246e+18
1.76805147e+18
1.81303978e+18
1.85696722e+18
1.89981697e+18
1.9415773e+18
1.98224117e+18
2.0218059e+18
2.06027281e+18
2.09764691e+18
2.13393662e+18
2.16915354e+18
2.20331221e+18
2.23642989e+18
2.26852638e+18
2.29962389e+18
2.32974683e+18
2.3589217e+18
2.38723689e+18
2.41456323e+18
2.44093057e+18
2.46636983e+18
2.49091297e+18
2.51459296e+18
2.5374437e+18
2.5595e+18
2.58079747e+18
2.60137248e+18
2.62126202e+18
2.6405036e+18
2.65913511e+18
2.67719465e+18
2.69472028e+18
2.71174986e+18
2.7283207e+18
2.74446928e+18
2.7602309e+18
2.77563924e+18
2.79072591e+18
2.80551998e+18
2.82004739e+18
2.83433037e+18
2.84838676e+18
2.86222938e+18
2.87586522e+18
2.88929476e+18
2.90251109e+18
2.91549921e+18
2.92823515e+18
2.94068525e+18
2.9528054e+18
2.96454037e+18
2.97582328e+18
2.98657517e+18
2.9967049e+18
3.0061092e+18
3.01467328e+18
3.02227189e+18
3.0287711e+18
3.03403084e+18
3.03790853e+18
3.04026265e+18
9.12730733e+16
1.06763159e+17
1.24569621e+17
1.44709426e+17
1.6725604e+17
1.9228037e+17
2.198201e+17
2.49878747e+17
2.82434253e+17
3.17446115e+17
3.54858602e+17
3.94601108e+17
4.36587246e+17
4.80713923e+17
5.26861075e+17
5.74892302e+17
6.24656387e+17
6.7598953e+17
7.28718064e+17
7.82661444e+17
8.37635277e+17
8.93454257e+17
9.49934854e+17
1.0068977e+18
1.06416959e+18
1.12158516e+18
1.17898812e+18
1.23623219e+18
1.29318171e+18
1.34971196e+18
1.40570926e+18
1.46107086e+18
1.51570469e+18
1.56952902e+18
1.62247196e+18
1.674471e+18
1.72547239e+18
1.77543064e+18
1.8243079e+18
1.87207339e+18
1.91870289e+18
1.96417817e+18
2.00848649e+18
2.05162018e+18
2.09357614e+18
2.13435547e+18
2.17396314e+18
2.21240762e+18
2.2497006e+18
2.28585674e+18
2.32089345e+18
2.35483066e+18
2.38769065e+18
2.4194979e+18
2.45027888e+18
2.48006196e+18
2.50895427e+18
2.53682179e+18
2.56369607e+18
2.58960955e+18
2.61459558e+18
2.63868833e+18
2.66192279e+18
2.6843347e+18
2.70596051e+18
2.72683726e+18
2.74700254e+18
2.76649435e+18
2.78535098e+18
2.80361084e+18
2.82131224e+18
2.83849322e+18
2.85519124e+18
2.8714429e+18
2.88728358e+18
2.90274708e+18
2.91786513e+18
2.93266697e+18
2.94717875e+18
2.96142304e+18
2.97541811e+18
2.98917736e+18
3.00270853e+18
3.01601304e+18
3.02908522e+18
3.04191151e+18
3.05446974e+18
3.06672835e+18
3.07864572e+18
3.09016947e+18
3.10123598e+18
3.11176992e+18
3.12168413e+18
3.13087961e+18
3.13924602e+18
3.14666263e+18
3.15299987e+18
3.15812172e+18
3.16188906e+18
3.16416321e+18
9.52930006e+16
1.11247015e+17
1.29762481e+17
1.50861294e+17
1.74615993e+17
2.0109349e+17
2.3032659e+17
2.62313831e+17
2.97027459e+17
3.34419356e+17
3.74423181e+17
4.16954085e+17
4.61907721e+17
5.09159668e+17
5.58565834e+17
6.0996393e+17
6.63175898e+17
7.18011011e+17
7.74269372e+17
8.31745553e+17
8.9023213e+17
9.49522978e+17
1.00941618e+18
1.06971651e+18
1.13023746e+18
1.19080277e+18
1.2512476e+18
1.31141925e+18
1.37117756e+18
1.43039504e+18
1.48895672e+18
1.54675987e+18
1.60371355e+18
1.65973801e+18
1.71476414e+18
1.76873275e+18
1.82159387e+18
1.87330608e+18
1.92383583e+18
1.97315675e+18
2.02124902e+18
2.06809882e+18
2.11369771e+18
2.1580422e+18
2.2011332e+18
2.24297569e+18
2.28357826e+18
2.32295285e+18
2.36111441e+18
2.39808064e+18
2.43387177e+18
2.46851035e+18
2.50202105e+18
2.53443053e+18
2.56576724e+18
2.59606132e+18
2.62543531e+18