/*--------------------------------*- C++ -*----------------------------------*\
| =========                 |                                                 |
| \\      /  F ield         | OpenFOAM Extend Project: Open source CFD        |
|  \\    /   O peration     | Version:  1.6-ext                               |
|   \\  /    A nd           | Web:      www.extend-project.de                 |
|    \\/     M anipulation  |                                                 |
\*---------------------------------------------------------------------------*/
FoamFile
{
    version     2.0;
    format      ascii;
    class       volScalarField;
    location    "4000";
    object      prec1_adj;
}
// * * * * * * * * * * * * * * * * * * * * * * * * * * * * * * * * * * * * * //

dimensions      [0 -2 -1 0 0 0 0];

internalField   nonuniform List<scalar> 
40000
(
2.08764989e+16
2.45100309e+16
2.79104946e+16
3.15137647e+16
3.56433952e+16
4.11214852e+16
4.71943308e+16
5.4284901e+16
6.22552625e+16
7.08730385e+16
7.99010601e+16
8.91402823e+16
9.84401215e+16
1.07693951e+17
1.16830141e+17
1.25803167e+17
1.34586273e+17
1.43165878e+17
1.51537493e+17
1.59702799e+17
1.67667594e+17
1.75440353e+17
1.83031239e+17
1.90451416e+17
1.97712585e+17
2.04826678e+17
2.11805654e+17
2.18661373e+17
2.25405526e+17
2.32049601e+17
2.38604875e+17
2.45082428e+17
2.51493171e+17
2.57847877e+17
2.64157231e+17
2.70431879e+17
2.76682482e+17
2.82919781e+17
2.89154657e+17
2.95398207e+17
3.01661817e+17
3.07957244e+17
3.14296709e+17
3.2069299e+17
3.27159531e+17
3.33710561e+17
3.40361226e+17
3.47127732e+17
3.54027515e+17
3.61079421e+17
3.68303919e+17
3.75723337e+17
3.8336214e+17
3.91247236e+17
3.99054416e+17
4.06590783e+17
4.13863216e+17
4.2087935e+17
4.27647576e+17
4.34177017e+17
4.40477497e+17
4.46559521e+17
4.52434238e+17
4.58113413e+17
4.63609389e+17
4.68935047e+17
4.74103759e+17
4.7912933e+17
4.84025935e+17
4.88808042e+17
4.93490322e+17
4.98087539e+17
5.02614433e+17
5.0708557e+17
5.11515175e+17
5.15916945e+17
5.20303824e+17
5.24687756e+17
5.29079405e+17
5.33487842e+17
5.37920195e+17
5.42381275e+17
5.46873154e+17
5.51394729e+17
5.55941253e+17
5.60503852e+17
5.65069037e+17
5.69618229e+17
5.74127327e+17
5.78566335e+17
5.82899108e+17
5.87083255e+17
5.91070272e+17
5.9480595e+17
5.98231177e+17
6.01282989e+17
6.03896408e+17
6.0600505e+17
6.07546042e+17
6.0844693e+17
2.48657077e+16
2.91034712e+16
3.29884089e+16
4.00140132e+16
5.15830436e+16
6.82676023e+16
8.88808882e+16
1.11938146e+17
1.36236992e+17
1.60956821e+17
1.85580194e+17
2.0979875e+17
2.33439553e+17
2.56414533e+17
2.7868767e+17
3.0025423e+17
3.21127786e+17
3.4133216e+17
3.60896453e+17
3.79852e+17
3.98230535e+17
4.16063117e+17
4.33379529e+17
4.50207975e+17
4.6657496e+17
4.82505291e+17
4.98022135e+17
5.1314712e+17
5.27900465e+17
5.42301098e+17
5.56366798e+17
5.70114318e+17
5.8355951e+17
5.96717445e+17
6.09602515e+17
6.22228547e+17
6.34608892e+17
6.4675652e+17
6.58684104e+17
6.70404105e+17
6.81928846e+17
6.9327059e+17
7.04441614e+17
7.15454277e+17
7.26321094e+17
7.37054806e+17
7.47668453e+17
7.58175445e+17
7.68589639e+17
7.78925416e+17
7.89197763e+17
7.99422357e+17
8.09615646e+17
8.19794925e+17
8.29809007e+17
8.39397004e+17
8.48579594e+17
8.573774e+17
8.65811045e+17
8.73901195e+17
8.81668596e+17
8.89134093e+17
8.96318642e+17
9.03243307e+17
9.09929255e+17
9.16397722e+17
9.22669983e+17
9.28767287e+17
9.34710789e+17
9.40521459e+17
9.46219961e+17
9.51826521e+17
9.57360766e+17
9.62841533e+17
9.68286656e+17
9.73712722e+17
9.79134802e+17
9.84566145e+17
9.90017854e+17
9.9549853e+17
1.00101389e+18
1.00656637e+18
1.01215469e+18
1.01777347e+18
1.02341273e+18
1.02905752e+18
1.03468751e+18
1.0402766e+18
1.04579265e+18
1.05119724e+18
1.05644559e+18
1.06148664e+18
1.06626337e+18
1.07071332e+18
1.07476955e+18
1.07836174e+18
1.08141793e+18
1.0838656e+18
1.08563499e+18
1.08665137e+18
2.87620965e+16
3.40128716e+16
4.3345721e+16
5.90497855e+16
8.28892024e+16
1.13415462e+17
1.48252171e+17
1.85349267e+17
2.23291505e+17
2.61200009e+17
2.98561622e+17
3.35092763e+17
3.70648532e+17
4.05165969e+17
4.3862965e+17
4.71051028e+17
5.02456113e+17
5.32878143e+17
5.62353255e+17
5.90917977e+17
6.18607815e+17
6.45456503e+17
6.71495668e+17
6.96754719e+17
7.212609e+17
7.45039407e+17
7.6811356e+17
7.90504988e+17
8.12233822e+17
8.33318886e+17
8.53777874e+17
8.73627523e+17
8.9288377e+17
9.11561896e+17
9.29676658e+17
9.47242414e+17
9.6427323e+17
9.80782984e+17
9.96785454e+17
1.01229441e+18
1.02732367e+18
1.04188721e+18
1.05599919e+18
1.06967404e+18
1.0829265e+18
1.09577169e+18
1.10822515e+18
1.12030288e+18
1.13202142e+18
1.14339785e+18
1.15444984e+18
1.16519571e+18
1.17565442e+18
1.18584556e+18
1.19576939e+18
1.20523473e+18
1.21426632e+18
1.22288835e+18
1.23112452e+18
1.2389982e+18
1.24653241e+18
1.25374992e+18
1.2606733e+18
1.26732487e+18
1.27372678e+18
1.27990099e+18
1.28586921e+18
1.29165288e+18
1.29727312e+18
1.30275065e+18
1.30810565e+18
1.31335769e+18
1.31852557e+18
1.32362714e+18
1.32867909e+18
1.33369678e+18
1.33869396e+18
1.34368252e+18
1.3486722e+18
1.35367027e+18
1.35868123e+18
1.36370648e+18
1.36874392e+18
1.37378769e+18
1.37882773e+18
1.38384957e+18
1.38883391e+18
1.39375648e+18
1.39858775e+18
1.40329288e+18
1.40783171e+18
1.41215886e+18
1.41622413e+18
1.41997298e+18
1.42334739e+18
1.42628685e+18
1.42872982e+18
1.43061484e+18
1.43188289e+18
1.4324733e+18
3.29597434e+16
4.3297964e+16
6.10452651e+16
8.85568087e+16
1.2535739e+17
1.68822995e+17
2.16139476e+17
2.65175509e+17
3.14546953e+17
3.63421619e+17
4.11322461e+17
4.57988452e+17
5.03286872e+17
5.47160368e+17
5.895955e+17
6.30604101e+17
6.70212217e+17
7.0845353e+17
7.45365446e+17
7.80986789e+17
8.15356462e+17
8.48512695e+17
8.80492656e+17
9.11332271e+17
9.41066187e+17
9.69727793e+17
9.973493e+17
1.02396183e+18
1.04959552e+18
1.07427962e+18
1.09804257e+18
1.12091212e+18
1.14291537e+18
1.16407888e+18
1.18442867e+18
1.20399033e+18
1.22278905e+18
1.24084963e+18
1.25819652e+18
1.2748539e+18
1.29084565e+18
1.30619539e+18
1.32092651e+18
1.33506219e+18
1.34862546e+18
1.36163914e+18
1.37412595e+18
1.3861085e+18
1.39760931e+18
1.40865086e+18
1.41925561e+18
1.42944601e+18
1.43924451e+18
1.44867356e+18
1.45778857e+18
1.46645555e+18
1.47469925e+18
1.48254367e+18
1.49001215e+18
1.4971275e+18
1.50391203e+18
1.51038765e+18
1.51657588e+18
1.5224979e+18
1.52817457e+18
1.53362642e+18
1.53887363e+18
1.54393602e+18
1.54883297e+18
1.55358339e+18
1.55820559e+18
1.56271723e+18
1.56713515e+18
1.57147523e+18
1.57575226e+18
1.57997971e+18
1.58416955e+18
1.58833202e+18
1.59247538e+18
1.5966057e+18
1.60072651e+18
1.60483863e+18
1.60893979e+18
1.61302446e+18
1.6170835e+18
1.62110398e+18
1.62506893e+18
1.62895719e+18
1.63274327e+18
1.63639734e+18
1.63988524e+18
1.64316872e+18
1.64620571e+18
1.64895085e+18
1.65135625e+18
1.65337233e+18
1.65494907e+18
1.65603703e+18
1.65658916e+18
1.65655861e+18
3.81866975e+16
5.62225754e+16
8.50356333e+16
1.25169944e+17
1.74461272e+17
2.29669558e+17
2.87922437e+17
3.47196499e+17
4.06216155e+17
4.64220759e+17
5.20772246e+17
5.75627747e+17
6.28661581e+17
6.79818705e+17
7.29087051e+17
7.76480916e+17
8.22030881e+17
8.65777573e+17
9.07767741e+17
9.48051758e+17
9.86681985e+17
1.02371171e+18
1.05919442e+18
1.09318335e+18
1.12573109e+18
1.15688944e+18
1.18670921e+18
1.21524011e+18
1.24253069e+18
1.26862831e+18
1.29357904e+18
1.31742774e+18
1.34021795e+18
1.36199194e+18
1.38279073e+18
1.40265405e+18
1.42162038e+18
1.43972698e+18
1.4570099e+18
1.47350403e+18
1.48924309e+18
1.50425973e+18
1.51858551e+18
1.53225101e+18
1.54528582e+18
1.55771864e+18
1.5695773e+18
1.58088884e+18
1.59167957e+18
1.60197509e+18
1.6118004e+18
1.62117993e+18
1.63013754e+18
1.63869659e+18
1.64692847e+18
1.65473037e+18
1.66212578e+18
1.66913742e+18
1.67578727e+18
1.68209674e+18
1.68808668e+18
1.6937775e+18
1.69918918e+18
1.70434128e+18
1.70925302e+18
1.71394322e+18
1.71843034e+18
1.72273241e+18
1.72686699e+18
1.73085116e+18
1.73470138e+18
1.73843344e+18
1.74206234e+18
1.74560217e+18
1.74906592e+18
1.7524654e+18
1.755811e+18
1.75911152e+18
1.76237396e+18
1.76560334e+18
1.76880241e+18
1.77197152e+18
1.77510831e+18
1.77820756e+18
1.78126095e+18
1.78425689e+18
1.78718039e+18
1.79001291e+18
1.79273235e+18
1.79531302e+18
1.79772577e+18
1.7999382e+18
1.80191495e+18
1.80361826e+18
1.80500858e+18
1.80604543e+18
1.80668838e+18
1.80689808e+18
1.80663767e+18
1.80587165e+18
4.5150578e+16
7.21433314e+16
1.13218386e+17
1.65981509e+17
2.27051887e+17
2.92921208e+17
3.60838285e+17
4.28960505e+17
4.96147433e+17
5.61720358e+17
6.25286463e+17
6.86627557e+17
7.45633075e+17
8.02260023e+17
8.56508775e+17
9.08408067e+17
9.58005445e+17
1.00536097e+18
1.05054295e+18
1.09362499e+18
1.13468379e+18
1.17379769e+18
1.21104544e+18
1.24650538e+18
1.28025477e+18
1.31236933e+18
1.34292285e+18
1.37198696e+18
1.39963089e+18
1.42592141e+18
1.45092268e+18
1.47469626e+18
1.49730109e+18
1.51879348e+18
1.53922722e+18
1.55865354e+18
1.57712129e+18
1.59467693e+18
1.61136468e+18
1.62722661e+18
1.64230273e+18
1.65663111e+18
1.670248e+18
1.68318791e+18
1.69548377e+18
1.70716699e+18
1.71826762e+18
1.72881441e+18
1.73883495e+18
1.74835576e+18
1.75740235e+18
1.76599934e+18
1.77417052e+18
1.78193888e+18
1.78935547e+18
1.7963808e+18
1.80301285e+18
1.8092728e+18
1.81518118e+18
1.82075789e+18
1.82602233e+18
1.83099344e+18
1.8356897e+18
1.84012922e+18
1.84432973e+18
1.84830856e+18
1.85208264e+18
1.8556685e+18
1.85908218e+18
1.86233921e+18
1.86545453e+18
1.86844242e+18
1.87131635e+18
1.87408892e+18
1.87677172e+18
1.87937515e+18
1.88190833e+18
1.88437885e+18
1.88679268e+18
1.88915391e+18
1.89146464e+18
1.89372472e+18
1.89593162e+18
1.89808024e+18
1.90016277e+18
1.90216852e+18
1.90408386e+18
1.90589216e+18
1.90757375e+18
1.90910602e+18
1.91046352e+18
1.91161826e+18
1.91254001e+18
1.91319679e+18
1.91355556e+18
1.91358294e+18
1.91324616e+18
1.91251399e+18
1.91135796e+18
1.90975171e+18
5.27250087e+16
9.02192387e+16
1.43924954e+17
2.08963161e+17
2.81059263e+17
3.56636315e+17
4.33142659e+17
5.08941197e+17
5.83037029e+17
6.54843114e+17
7.24023975e+17
7.90400352e+17
8.53892289e+17
9.14484717e+17
9.72206014e+17
1.02711409e+18
1.07928703e+18
1.12881648e+18
1.17580291e+18
1.22035209e+18
1.26257244e+18
1.30257308e+18
1.34046224e+18
1.3763462e+18
1.41032839e+18
1.4425088e+18
1.47298357e+18
1.50184468e+18
1.5291798e+18
1.55507222e+18
1.57960084e+18
1.60284025e+18
1.62486083e+18
1.64572887e+18
1.66550673e+18
1.68425308e+18
1.70202299e+18
1.71886823e+18
1.73483739e+18
1.74997615e+18
1.76432743e+18
1.77793159e+18
1.79082665e+18
1.80304845e+18
1.81463082e+18
1.82560576e+18
1.83600358e+18
1.84585307e+18
1.85518162e+18
1.86401534e+18
1.87237922e+18
1.88029719e+18
1.8877922e+18
1.89488633e+18
1.90160081e+18
1.90796313e+18
1.9139393e+18
1.9195491e+18
1.92481167e+18
1.92974561e+18
1.93436902e+18
1.93869955e+18
1.94275448e+18
1.94655068e+18
1.95010465e+18
1.95343251e+18
1.95655001e+18
1.95947246e+18
1.9622147e+18
1.96479106e+18
1.96721529e+18
1.96950046e+18
1.97165886e+18
1.97370193e+18
1.97564011e+18
1.97748271e+18
1.97923777e+18
1.98091191e+18
1.98251019e+18
1.98403592e+18
1.98549052e+18
1.98687334e+18
1.98818155e+18
1.98940996e+18
1.99055091e+18
1.9915942e+18
1.992527e+18
1.99333387e+18
1.99399677e+18
1.99449516e+18
1.99480622e+18
1.99490508e+18
1.99476526e+18
1.99435912e+18
1.99365854e+18
1.99263564e+18
1.99126371e+18
1.98951805e+18
1.98737707e+18
1.98482197e+18
6.1090164e+16
1.09701603e+17
1.75976952e+17
2.52765411e+17
3.35139571e+17
4.19566818e+17
5.03725167e+17
5.86188561e+17
6.6611336e+17
7.43015275e+17
8.1663146e+17
8.86838937e+17
9.53606031e+17
1.0169624e+18
1.07697967e+18
1.13375817e+18
1.18741758e+18
1.23809006e+18
1.28591497e+18
1.33103506e+18
1.37359342e+18
1.41373128e+18
1.45158632e+18
1.48729151e+18
1.52097426e+18
1.55275586e+18
1.58275121e+18
1.61106868e+18
1.63781008e+18
1.66307083e+18
1.6869401e+18
1.70950111e+18
1.73083136e+18
1.751003e+18
1.77008312e+18
1.78813406e+18
1.80521381e+18
1.82137625e+18
1.83667154e+18
1.85114633e+18
1.86484415e+18
1.87780559e+18
1.89006858e+18
1.90166867e+18
1.91263917e+18
1.92301144e+18
1.93281502e+18
1.94207782e+18
1.95082627e+18
1.95908552e+18
1.96687948e+18
1.97423102e+18
1.98116199e+18
1.98769338e+18
1.99384528e+18
1.99964933e+18
2.00506821e+18
2.01012047e+18
2.01482406e+18
2.01919646e+18
2.02325468e+18
2.02701535e+18
2.03049473e+18
2.0337087e+18
2.03667281e+18
2.03940224e+18
2.0419118e+18
2.04421586e+18
2.04632835e+18
2.04826268e+18
2.05003166e+18
2.05164743e+18
2.05312138e+18
2.05446401e+18
2.05568485e+18
2.05679231e+18
2.05779355e+18
2.05869437e+18
2.059499e+18
2.06021003e+18
2.06082821e+18
2.06135234e+18
2.06177911e+18
2.06210306e+18
2.06231638e+18
2.06240897e+18
2.0623683e+18
2.06217953e+18
2.06182553e+18
2.06128704e+18
2.0605429e+18
2.05957038e+18
2.0583456e+18
2.05684403e+18
2.05504122e+18
2.05291349e+18
2.05043889e+18
2.04759799e+18
2.04437491e+18
2.04075722e+18
7.00605986e+16
1.30024653e+17
2.08568644e+17
2.96502677e+17
3.88427172e+17
4.80918996e+17
5.71894772e+17
6.60138647e+17
7.44963234e+17
8.25998783e+17
9.03070869e+17
9.76129861e+17
1.04520882e+18
1.11039683e+18
1.17182113e+18
1.22963431e+18
1.28400499e+18
1.33511073e+18
1.38313264e+18
1.4282514e+18
1.47064415e+18
1.51048241e+18
1.54793045e+18
1.58314436e+18
1.61627141e+18
1.6474498e+18
1.6768086e+18
1.70446796e+18
1.73053932e+18
1.75512584e+18
1.77832286e+18
1.8002183e+18
1.82089323e+18
1.84042234e+18
1.85887442e+18
1.87631286e+18
1.89279607e+18
1.90837796e+18
1.9231083e+18
1.9370331e+18
1.950195e+18
1.96263355e+18
1.97438553e+18
1.98548523e+18
1.99596468e+18
2.00585389e+18
2.01518108e+18
2.02397282e+18
2.03225425e+18
2.04004921e+18
2.04738037e+18
2.05426937e+18
2.06073691e+18
2.0668028e+18
2.07248609e+18
2.07782104e+18
2.08276632e+18
2.08733938e+18
2.0915572e+18
2.09543629e+18
2.09899278e+18
2.10224247e+18
2.10520079e+18
2.10788287e+18
2.11030348e+18
2.11247709e+18
2.11441777e+18
2.11613918e+18
2.11765454e+18
2.11897655e+18
2.12011729e+18
2.12108819e+18
2.1218999e+18
2.12256218e+18
2.12308382e+18
2.12347247e+18
2.12373455e+18
2.12387508e+18
2.12389757e+18
2.12380389e+18
2.12359409e+18
2.12326633e+18
2.12281673e+18
2.12223931e+18
2.12152588e+18
2.12066605e+18
2.11964721e+18
2.11845457e+18
2.11707132e+18
2.11547877e+18
2.11365668e+18
2.11158355e+18
2.10923714e+18
2.10659507e+18
2.10363545e+18
2.10033776e+18
2.09668368e+18
2.09265803e+18
2.08824969e+18
2.08345162e+18
7.94657509e+16
1.50775598e+17
2.41154843e+17
3.39598894e+17
4.40373128e+17
5.40203363e+17
6.37245755e+17
7.30492912e+17
8.19419059e+17
9.03780453e+17
9.83505545e+17
1.05863284e+18
1.12927359e+18
1.19558752e+18
1.25776609e+18
1.31602015e+18
1.3705708e+18
1.42164244e+18
1.46945757e+18
1.51423295e+18
1.5561769e+18
1.59548748e+18
1.63235134e+18
1.66694313e+18
1.69942534e+18
1.72994842e+18
1.75865116e+18
1.7856612e+18
1.81109563e+18
1.8350617e+18
1.85765753e+18
1.87897275e+18
1.89908929e+18
1.918082e+18
1.93601927e+18
1.95296367e+18
1.96897247e+18
1.98409821e+18
1.99838909e+18
2.01188947e+18
2.02464027e+18
2.03667928e+18
2.04804152e+18
2.05875955e+18
2.06886371e+18
2.07838236e+18
2.08734215e+18
2.09576813e+18
2.10368401e+18
2.11111226e+18
2.11807426e+18
2.12459042e+18
2.1306803e+18
2.13636265e+18
2.1416555e+18
2.14659568e+18
2.15113699e+18
2.15529596e+18
2.15908872e+18
2.162531e+18
2.16563821e+18
2.16842545e+18
2.17090749e+18
2.17309884e+18
2.1750137e+18
2.17666593e+18
2.17806905e+18
2.17923617e+18
2.18017994e+18
2.18091249e+18
2.18144534e+18
2.18178935e+18
2.18195455e+18
2.1819501e+18
2.18178414e+18
2.18146367e+18
2.18099441e+18
2.1803807e+18
2.17962533e+18
2.17872942e+18
2.17769231e+18
2.17651141e+18
2.17518213e+18
2.17369778e+18
2.17204954e+18
2.17022642e+18
2.16821532e+18
2.1660011e+18
2.1635667e+18
2.16089342e+18
2.1579612e+18
2.15474906e+18
2.15123559e+18
2.1473996e+18
2.14322091e+18
2.13868114e+18
2.1337647e+18
2.12845972e+18
2.12275895e+18
2.11665994e+18
8.91631459e+16
1.71656839e+17
2.73369063e+17
3.81684819e+17
4.90640529e+17
5.97136818e+17
6.99568382e+17
7.97135631e+17
8.89480092e+17
9.76494387e+17
1.05822192e+18
1.13480094e+18
1.20643066e+18
1.27334888e+18
1.33581614e+18
1.39410404e+18
1.44848663e+18
1.49923387e+18
1.54660705e+18
1.59085553e+18
1.63221463e+18
1.67090445e+18
1.70712936e+18
1.74107797e+18
1.77292351e+18
1.80282452e+18
1.83092558e+18
1.85735829e+18
1.88224222e+18
1.90568584e+18
1.92778754e+18
1.9486365e+18
1.96831362e+18
1.98689225e+18
2.00443903e+18
2.02101452e+18
2.03667388e+18
2.05146741e+18
2.06544112e+18
2.07863715e+18
2.0910942e+18
2.10284798e+18
2.11393145e+18
2.12437522e+18
2.13420776e+18
2.14345569e+18
2.15214399e+18
2.16029617e+18
2.16793447e+18
2.17508001e+18
2.18175291e+18
2.18797243e+18
2.19375702e+18
2.19912445e+18
2.20409183e+18
2.20869908e+18
2.21289436e+18
2.21669344e+18
2.22011173e+18
2.2231643e+18
2.22586594e+18
2.22823117e+18
2.23027424e+18
2.23200916e+18
2.23344961e+18
2.23460902e+18
2.23550043e+18
2.23613651e+18
2.23652944e+18
2.2366909e+18
2.23663194e+18
2.23636291e+18
2.23589334e+18
2.23523184e+18
2.23438598e+18
2.23336214e+18
2.23216541e+18
2.23079944e+18
2.22926629e+18
2.22756631e+18
2.22569804e+18
2.22365805e+18
2.22144089e+18
2.219039e+18
2.21644265e+18
2.21364e+18
2.2106171e+18
2.207358e+18
2.20384495e+18
2.20005868e+18
2.19597871e+18
2.19158384e+18
2.18685275e+18
2.18176468e+18
2.17630022e+18
2.1704423e+18
2.16417717e+18
2.15749535e+18
2.15039267e+18
2.14287049e+18
9.90374479e+16
1.9245506e+17
3.04967479e+17
4.22530609e+17
5.39035744e+17
6.51577029e+17
7.58787266e+17
8.60075458e+17
9.55256106e+17
1.04436688e+18
1.12757544e+18
1.20512792e+18
1.27731772e+18
1.34446452e+18
1.40689961e+18
1.46495505e+18
1.51895588e+18
1.5692146e+18
1.61602739e+18
1.65967181e+18
1.7004056e+18
1.73846627e+18
1.77407144e+18
1.80741946e+18
1.83869045e+18
1.86804747e+18
1.89563779e+18
1.9215942e+18
1.94603629e+18
1.96907172e+18
1.99079738e+18
2.01130049e+18
2.03065963e+18
2.04894566e+18
2.06622257e+18
2.08254822e+18
2.09797508e+18
2.1125508e+18
2.12631879e+18
2.13931868e+18
2.15158681e+18
2.16315659e+18
2.17405885e+18
2.18432218e+18
2.19397315e+18
2.20303661e+18
2.2115359e+18
2.21949299e+18
2.22692874e+18
2.23386295e+18
2.24031456e+18
2.24630173e+18
2.25184192e+18
2.25695199e+18
2.26164822e+18
2.26597423e+18
2.26987208e+18
2.27335684e+18
2.27644331e+18
2.27914598e+18
2.28147912e+18
2.28345677e+18
2.28509272e+18
2.28640053e+18
2.2873935e+18
2.28808464e+18
2.28848661e+18
2.28861168e+18
2.28847165e+18
2.28807778e+18
2.28744071e+18
2.28657034e+18
2.28547574e+18
2.28416499e+18
2.28264513e+18
2.28092194e+18
2.27899986e+18
2.27688184e+18
2.27456917e+18
2.2720614e+18
2.26935617e+18
2.26644909e+18
2.26333372e+18
2.26000141e+18
2.25644133e+18
2.25264047e+18
2.2485837e+18
2.24425389e+18
2.23963216e+18
2.2346981e+18
2.22943025e+18
2.22380657e+18
2.21780507e+18
2.21140463e+18
2.20458583e+18
2.19733202e+18
2.18963037e+18
2.18147296e+18
2.17285786e+18
2.16378944e+18
1.08996744e+17
2.13018257e+17
3.35791059e+17
4.62001189e+17
5.85462464e+17
7.03477479e+17
8.14917996e+17
9.19403576e+17
1.0169269e+18
1.10767747e+18
1.1919536e+18
1.27011429e+18
1.34255001e+18
1.40966327e+18
1.47185514e+18
1.52951574e+18
1.58301769e+18
1.63271183e+18
1.67892471e+18
1.72195746e+18
1.76208567e+18
1.79955998e+18
1.83460725e+18
1.86743197e+18
1.89821793e+18
1.92712993e+18
1.95431548e+18
1.9799065e+18
2.00402088e+18
2.02676399e+18
2.04823004e+18
2.06850329e+18
2.08765923e+18
2.10576557e+18
2.12288317e+18
2.13906681e+18
2.15436596e+18
2.1688254e+18
2.1824858e+18
2.19538419e+18
2.20755448e+18
2.21902776e+18
2.22983274e+18
2.23999598e+18
2.24954222e+18
2.25849461e+18
2.26687488e+18
2.27470358e+18
2.2820002e+18
2.28878337e+18
2.29507088e+18
2.30087991e+18
2.30622699e+18
2.31112817e+18
2.315599e+18
2.31968737e+18
2.32332892e+18
2.32653813e+18
2.32932924e+18
2.33171625e+18
2.33371297e+18
2.335333e+18
2.33658973e+18
2.33749634e+18
2.33806575e+18
2.33831061e+18
2.33824322e+18
2.3378755e+18
2.33721888e+18
2.33628424e+18
2.33508182e+18
2.33362108e+18
2.33191062e+18
2.32995804e+18
2.32776979e+18
2.32535108e+18
2.32270565e+18
2.31983571e+18
2.31674175e+18
2.3134224e+18
2.30987431e+18
2.30609205e+18
2.30206797e+18
2.29779218e+18
2.2932525e+18
2.28843449e+18
2.28332151e+18
2.27789489e+18
2.27213411e+18
2.2660172e+18
2.25952112e+18
2.25262232e+18
2.24529748e+18
2.23752432e+18
2.22928259e+18
2.22055516e+18
2.21132924e+18
2.20159754e+18
2.19135944e+18
2.18062145e+18
1.18968523e+17
2.33239153e+17
3.65739909e+17
5.00026358e+17
6.2989052e+17
7.52856273e+17
8.68036432e+17
9.75263757e+17
1.07471352e+18
1.16673177e+18
1.2517513e+18
1.33024606e+18
1.40270383e+18
1.46960847e+18
1.53142804e+18
1.58860692e+18
1.64156089e+18
1.69067448e+18
1.73629992e+18
1.7787574e+18
1.81833613e+18
1.85529606e+18
1.88986991e+18
1.92226535e+18
1.95266728e+18
1.98124007e+18
2.0081297e+18
2.03346571e+18
2.05736309e+18
2.07992394e+18
2.10123899e+18
2.12138898e+18
2.14044582e+18
2.15847374e+18
2.17553019e+18
2.19166671e+18
2.20692967e+18
2.22136091e+18
2.23499833e+18
2.24787641e+18
2.26002661e+18
2.27147781e+18
2.28225663e+18
2.29238773e+18
2.30189408e+18
2.3107972e+18
2.31911734e+18
2.3268737e+18
2.33408455e+18
2.34076736e+18
2.34693894e+18
2.35261551e+18
2.35781281e+18
2.36254613e+18
2.36683035e+18
2.37071813e+18
2.37413855e+18
2.37710559e+18
2.37963298e+18
2.38173428e+18
2.38342287e+18
2.38471195e+18
2.38561454e+18
2.38614345e+18
2.38631125e+18
2.38613025e+18
2.38561239e+18
2.38476923e+18
2.38361184e+18
2.38215072e+18
2.38039569e+18
2.37835576e+18
2.37603907e+18
2.37345267e+18
2.37060244e+18
2.36749292e+18
2.36412714e+18
2.36050651e+18
2.35663062e+18
2.3524971e+18
2.34810152e+18
2.34343722e+18
2.33849522e+18
2.33326418e+18
2.32773034e+18
2.32187755e+18
2.31568734e+18
2.30913909e+18
2.30221028e+18
2.29487682e+18
2.28711352e+18
2.27889473e+18
2.27019504e+18
2.26099025e+18
2.2512584e+18
2.24098096e+18
2.2301442e+18
2.21874046e+18
2.20676947e+18
2.19423886e+18
1.28896058e+17
2.53043284e+17
3.94755674e+17
5.36580432e+17
6.72334397e+17
7.99774275e+17
9.18256899e+17
1.02783106e+18
1.12885796e+18
1.22184303e+18
1.30735494e+18
1.38598233e+18
1.45830842e+18
1.52489522e+18
1.58627367e+18
1.64293776e+18
1.69534161e+18
1.74389861e+18
1.78898213e+18
1.83092724e+18
1.87003307e+18
1.9065656e+18
1.94076059e+18
1.97282652e+18
2.00294745e+18
2.03128573e+18
2.05798446e+18
2.0831698e+18
2.10695302e+18
2.12943234e+18
2.15069455e+18
2.1708165e+18
2.18986631e+18
2.20790456e+18
2.22498523e+18
2.24115657e+18
2.25646185e+18
2.27094004e+18
2.28462633e+18
2.29755271e+18
2.30974834e+18
2.32123995e+18
2.33205221e+18
2.34220797e+18
2.35172858e+18
2.36063403e+18
2.36894322e+18
2.37667409e+18
2.38384377e+18
2.39046873e+18
2.39656483e+18
2.40214747e+18
2.40723164e+18
2.41183195e+18
2.4159627e+18
2.41968159e+18
2.42291126e+18
2.42566519e+18
2.42795667e+18
2.42979883e+18
2.43120467e+18
2.43218699e+18
2.43275846e+18
2.43293151e+18
2.43271838e+18
2.43213101e+18
2.43118098e+18
2.42987948e+18
2.4282372e+18
2.42626421e+18
2.42396991e+18
2.42136282e+18
2.41845056e+18
2.41523961e+18
2.4117352e+18
2.40794117e+18
2.40385976e+18
2.3994915e+18
2.39483498e+18
2.38988675e+18
2.38464115e+18
2.37909015e+18
2.37322328e+18
2.36702753e+18
2.36048731e+18
2.3535845e+18
2.34629848e+18
2.33860631e+18
2.33048299e+18
2.32190184e+18
2.31283495e+18
2.30325389e+18
2.29313045e+18
2.28243765e+18
2.27115093e+18
2.2592494e+18
2.24671731e+18
2.23354554e+18
2.219733e+18
2.20528737e+18
1.38735367e+17
2.7238041e+17
4.22809332e+17
5.71668215e+17
7.12838316e+17
8.44319745e+17
9.65716786e+17
1.07729686e+18
1.17960927e+18
1.27331987e+18
1.35913262e+18
1.4377487e+18
1.5098433e+18
1.57605221e+18
1.63696432e+18
1.69311817e+18
1.74500123e+18
1.79305114e+18
1.83765817e+18
1.87916854e+18
1.91788807e+18
1.95408606e+18
1.98799906e+18
2.01983452e+18
2.04977418e+18
2.07797718e+18
2.10458288e+18
2.12971336e+18
2.15347568e+18
2.17596381e+18
2.19726041e+18
2.21743827e+18
2.23656169e+18
2.25468759e+18
2.27186653e+18
2.28814356e+18
2.30355895e+18
2.31814891e+18
2.33194608e+18
2.34498006e+18
2.35727783e+18
2.36886414e+18
2.37976178e+18
2.38999194e+18
2.39957438e+18
2.40852768e+18
2.41686944e+18
2.4246164e+18
2.43178461e+18
2.43838954e+18
2.44444617e+18
2.44996909e+18
2.45497255e+18
2.45947055e+18
2.4634768e+18
2.46700884e+18
2.47007417e+18
2.47264053e+18
2.4747208e+18
2.47632772e+18
2.47747387e+18
2.47817172e+18
2.47843352e+18
2.47827138e+18
2.47769714e+18
2.47672237e+18
2.47535828e+18
2.47361565e+18
2.47150473e+18
2.46903515e+18
2.46621582e+18
2.46305475e+18
2.45955896e+18
2.45573431e+18
2.45158532e+18
2.44711504e+18
2.44232485e+18
2.4372143e+18
2.43178089e+18
2.42601996e+18
2.41992447e+18
2.41348489e+18
2.40668906e+18
2.3995221e+18
2.39196637e+18
2.38400146e+18
2.37560426e+18
2.36674915e+18
2.35740822e+18
2.34755165e+18
2.33714825e+18
2.3261661e+18
2.31457342e+18
2.30233964e+18
2.28943658e+18
2.27583991e+18
2.26153075e+18
2.24649726e+18
2.23073625e+18
2.21425411e+18
1.48452724e+17
2.91218265e+17
4.49892603e+17
6.05315204e+17
7.51465768e+17
8.86597526e+17
1.01056571e+18
1.12385848e+18
1.22721421e+18
1.32145855e+18
1.40742863e+18
1.48593454e+18
1.55773887e+18
1.62354601e+18
1.6839975e+18
1.73967124e+18
1.79108322e+18
1.83869093e+18
1.88289777e+18
1.92405784e+18
1.96248095e+18
1.99843749e+18
2.03216302e+18
2.06386253e+18
2.09371438e+18
2.12187368e+18
2.14847543e+18
2.17363722e+18
2.1974616e+18
2.22003813e+18
2.24144518e+18
2.26175152e+18
2.28101758e+18
2.29929669e+18
2.31663604e+18
2.33307755e+18
2.34865859e+18
2.36341269e+18
2.37737002e+18
2.39055794e+18
2.40300136e+18
2.41472314e+18
2.42574441e+18
2.43608479e+18
2.44576269e+18
2.45479548e+18
2.46319965e+18
2.470991e+18
2.47818472e+18
2.48479553e+18
2.49083777e+18
2.49632543e+18
2.50127223e+18
2.50569169e+18
2.50959709e+18
2.51300151e+18
2.51592561e+18
2.51832702e+18
2.52021822e+18
2.52161155e+18
2.52251922e+18
2.52295331e+18
2.52292571e+18
2.52244812e+18
2.521532e+18
2.52018851e+18
2.51842844e+18
2.51626213e+18
2.51369936e+18
2.51074927e+18
2.50742021e+18
2.5037196e+18
2.49965384e+18
2.49522805e+18
2.490446e+18
2.48530986e+18
2.47982005e+18
2.47397503e+18
2.46777112e+18
2.46120229e+18
2.45426001e+18
2.44693307e+18
2.43920744e+18
2.43106614e+18
2.42248923e+18
2.41345373e+18
2.40393372e+18
2.39390048e+18
2.38332274e+18
2.37216702e+18
2.36039822e+18
2.34798025e+18
2.33487694e+18
2.32105318e+18
2.30647616e+18
2.29111697e+18
2.27495227e+18
2.25796614e+18
2.24015182e+18
2.22151287e+18
1.58022636e+17
3.09537957e+17
4.76011824e+17
6.37560675e+17
7.88292142e+17
9.26721441e+17
1.05295803e+18
1.16771219e+18
1.27191113e+18
1.36653844e+18
1.45256087e+18
1.5308928e+18
1.60237889e+18
1.66778657e+18
1.7278046e+18
1.7830451e+18
1.83404803e+18
1.88128678e+18
1.92517446e+18
1.96607031e+18
2.00428585e+18
2.04009075e+18
2.0737182e+18
2.1053697e+18
2.1352194e+18
2.16341783e+18
2.19009526e+18
2.21536449e+18
2.23932342e+18
2.26205713e+18
2.28363973e+18
2.30413594e+18
2.32360244e+18
2.34208906e+18
2.35963977e+18
2.37629349e+18
2.39208491e+18
2.40704507e+18
2.42120192e+18
2.43458078e+18
2.44720477e+18
2.45909512e+18
2.47027149e+18
2.48075223e+18
2.49055457e+18
2.49969483e+18
2.50818856e+18
2.51605069e+18
2.52329564e+18
2.5299374e+18
2.53598964e+18
2.54146574e+18
2.54637887e+18
2.55074201e+18
2.55456799e+18
2.55786948e+18
2.56067268e+18
2.56292928e+18
2.56465136e+18
2.56585089e+18
2.5665397e+18
2.56672945e+18
2.56643166e+18
2.56565761e+18
2.56441836e+18
2.56272461e+18
2.56058669e+18
2.55801446e+18
2.55501718e+18
2.55160342e+18
2.54778093e+18
2.5435565e+18
2.53893577e+18
2.53392312e+18
2.52852144e+18
2.52273194e+18
2.51655397e+18
2.50998482e+18
2.50301947e+18
2.49565043e+18
2.48786751e+18
2.47965764e+18
2.47100474e+18
2.46188953e+18
2.45228947e+18
2.44217876e+18
2.4315283e+18
2.42030589e+18
2.40847639e+18
2.39600216e+18
2.38284353e+18
2.36895949e+18
2.35430866e+18
2.33885038e+18
2.3225461e+18
2.30536105e+18
2.28726604e+18
2.26823949e+18
2.24826942e+18
2.22735473e+18
1.67426225e+17
3.27330568e+17
5.0118355e+17
6.68452788e+17
8.23399546e+17
9.64809014e+17
1.09304769e+18
1.20904855e+18
1.31392638e+18
1.40881958e+18
1.49482011e+18
1.57294126e+18
1.64410399e+18
1.7091331e+18
1.76875911e+18
1.82362357e+18
1.87428616e+18
1.92123262e+18
1.96488283e+18
2.00559879e+18
2.04369187e+18
2.07942961e+18
2.11304175e+18
2.14472549e+18
2.17465022e+18
2.20296152e+18
2.22978466e+18
2.25522757e+18
2.27938345e+18
2.3023329e+18
2.32414586e+18
2.34488314e+18
2.36459785e+18
2.38333651e+18
2.40114007e+18
2.41804474e+18
2.43408274e+18
2.4492829e+18
2.46367117e+18
2.47727112e+18
2.49010425e+18
2.50219038e+18
2.51354787e+18
2.52419391e+18
2.53414468e+18
2.54341554e+18
2.55202117e+18
2.55997572e+18
2.56729287e+18
2.57398595e+18
2.58006803e+18
2.58555196e+18
2.59045039e+18
2.59477586e+18
2.59854079e+18
2.60175746e+18
2.60445772e+18
2.60658751e+18
2.60815856e+18
2.60918243e+18
2.60967057e+18
2.60963426e+18
2.60908457e+18
2.60803238e+18
2.60648827e+18
2.60446249e+18
2.60196486e+18
2.59900469e+18
2.59559068e+18
2.59173079e+18
2.58743209e+18
2.58270065e+18
2.57754134e+18
2.57195765e+18
2.56595152e+18
2.55952313e+18
2.55267067e+18
2.5453901e+18
2.53767498e+18
2.5295162e+18
2.52090176e+18
2.5118166e+18
2.50224234e+18
2.49215719e+18
2.4815358e+18
2.47034918e+18
2.45856475e+18
2.44614637e+18
2.43305463e+18
2.41924709e+18
2.40467888e+18
2.38930331e+18
2.37307285e+18
2.35594027e+18
2.33786007e+18
2.31879023e+18
2.29869416e+18
2.27754287e+18
2.25531722e+18
2.2320094e+18
1.76649902e+17
3.4459458e+17
5.25431349e+17
6.98045071e+17
8.56873148e+17
1.00097781e+18
1.1309848e+18
1.24804955e+18
1.35347213e+18
1.4485418e+18
1.5344705e+18
1.61236467e+18
1.68321561e+18
1.74789976e+18
1.80718427e+18
1.86173558e+18
1.91212925e+18
1.95886018e+18
2.00235255e+18
2.04296908e+18
2.0810195e+18
2.11676809e+18
2.15044027e+18
2.18222841e+18
2.21229675e+18
2.24078568e+18
2.26781536e+18
2.29348885e+18
2.31789469e+18
2.34110915e+18
2.36319815e+18
2.38421882e+18
2.4042209e+18
2.42324785e+18
2.44133788e+18
2.45852475e+18
2.47483844e+18
2.49030581e+18
2.50495104e+18
2.5187961e+18
2.53186108e+18
2.54416451e+18
2.5557236e+18
2.5665545e+18
2.57667245e+18
2.58609196e+18
2.59482696e+18
2.60289089e+18
2.61029682e+18
2.61705752e+18
2.62318554e+18
2.62869323e+18
2.63359285e+18
2.6378965e+18
2.64161624e+18
2.64476399e+18
2.64737719e+18