/*--------------------------------*- C++ -*----------------------------------*\
| =========                 |                                                 |
| \\      /  F ield         | OpenFOAM Extend Project: Open source CFD        |
|  \\    /   O peration     | Version:  1.6-ext                               |
|   \\  /    A nd           | Web:      www.extend-project.de                 |
|    \\/     M anipulation  |                                                 |
\*---------------------------------------------------------------------------*/
FoamFile
{
    version     2.0;
    format      ascii;
    class       volScalarField;
    location    "4000";
    object      prec1;
}
// * * * * * * * * * * * * * * * * * * * * * * * * * * * * * * * * * * * * * //

dimensions      [0 -3 0 0 0 0 0];

internalField   nonuniform List<scalar> 
40000
(
2.4551666e+15
2.93630793e+15
3.40539083e+15
3.90285426e+15
4.49575037e+15
5.25888869e+15
6.04641401e+15
6.88441791e+15
7.75460164e+15
8.64155583e+15
9.53328345e+15
1.04206698e+16
1.12968725e+16
1.21567942e+16
1.29966646e+16
1.38137182e+16
1.46059523e+16
1.53719433e+16
1.61107108e+16
1.68216148e+16
1.75042789e+16
1.81585332e+16
1.87843712e+16
1.9381918e+16
1.99514057e+16
2.04931565e+16
2.1007569e+16
2.14951087e+16
2.19563012e+16
2.2391727e+16
2.28020183e+16
2.31878563e+16
2.35499705e+16
2.38891368e+16
2.42061781e+16
2.45019639e+16
2.47774104e+16
2.50334811e+16
2.52711872e+16
2.54915882e+16
2.5695792e+16
2.58849555e+16
2.60602848e+16
2.6223035e+16
2.63745103e+16
2.65160629e+16
2.66490923e+16
2.67750439e+16
2.68954066e+16
2.70117105e+16
2.7125523e+16
2.72384435e+16
2.73520959e+16
2.74813607e+16
2.76338999e+16
2.78089184e+16
2.80056899e+16
2.82235447e+16
2.84618586e+16
2.87200435e+16
2.89975382e+16
2.92937994e+16
2.9608294e+16
2.99404917e+16
3.02898577e+16
3.06558458e+16
3.10378925e+16
3.14354106e+16
3.1847784e+16
3.22743621e+16
3.27144556e+16
3.31673319e+16
3.36322111e+16
3.41082632e+16
3.45946049e+16
3.50902973e+16
3.55943443e+16
3.61056907e+16
3.66232216e+16
3.71457607e+16
3.76720697e+16
3.82008463e+16
3.87307226e+16
3.92602608e+16
3.97879487e+16
4.03121907e+16
4.08312972e+16
4.13434669e+16
4.18467641e+16
4.23390863e+16
4.28181201e+16
4.3281282e+16
4.37256366e+16
4.41477877e+16
4.45437266e+16
4.49086235e+16
4.52365279e+16
4.55199265e+16
4.57490421e+16
4.59106102e+16
2.89299985e+15
3.44611841e+15
4.03224995e+15
5.08394814e+15
6.45772092e+15
8.06343327e+15
9.81355132e+15
1.16369181e+16
1.348439e+16
1.53231262e+16
1.71314932e+16
1.8895416e+16
2.06058966e+16
2.22573536e+16
2.384651e+16
2.53716453e+16
2.68320887e+16
2.82278743e+16
2.95595052e+16
3.08277904e+16
3.20337338e+16
3.31784579e+16
3.42631513e+16
3.5289034e+16
3.62573343e+16
3.71692744e+16
3.80260614e+16
3.88288831e+16
3.95789062e+16
4.02772763e+16
4.09251201e+16
4.15235474e+16
4.20736547e+16
4.25765282e+16
4.3033248e+16
4.34448915e+16
4.38125374e+16
4.41372698e+16
4.44201816e+16
4.46623787e+16
4.48649835e+16
4.50291385e+16
4.51560103e+16
4.52467926e+16
4.53027103e+16
4.5325022e+16
4.53150239e+16
4.52740524e+16
4.52034868e+16
4.51047514e+16
4.49793172e+16
4.48287015e+16
4.46544647e+16
4.44695474e+16
4.42917235e+16
4.41213372e+16
4.39587713e+16
4.38044434e+16
4.36588024e+16
4.35223241e+16
4.33955083e+16
4.32788744e+16
4.31729586e+16
4.30783099e+16
4.29954869e+16
4.2925054e+16
4.28675782e+16
4.28236259e+16
4.27937593e+16
4.27785333e+16
4.27784929e+16
4.279417e+16
4.28260814e+16
4.28747263e+16
4.29405853e+16
4.30241187e+16
4.31257664e+16
4.32459479e+16
4.33850636e+16
4.35434959e+16
4.37216123e+16
4.39197687e+16
4.41383133e+16
4.43775918e+16
4.46379527e+16
4.49197533e+16
4.52233657e+16
4.55491824e+16
4.58976207e+16
4.62691257e+16
4.66641691e+16
4.7083243e+16
4.75268438e+16
4.79954397e+16
4.84894097e+16
4.90089287e+16
4.95537379e+16
5.01226724e+16
5.07124755e+16
5.13144074e+16
3.30204549e+15
3.91484794e+15
5.13579194e+15
7.06909911e+15
9.52905312e+15
1.22800667e+16
1.51604547e+16
1.80692259e+16
2.09452579e+16
2.37523022e+16
2.6469455e+16
2.90852826e+16
3.15942074e+16
3.39942705e+16
3.62857325e+16
3.84701918e+16
4.05500243e+16
4.25280261e+16
4.44071871e+16
4.6190547e+16
4.78811071e+16
4.94817767e+16
5.09953434e+16
5.24244588e+16
5.37716337e+16
5.50392399e+16
5.62295155e+16
5.73445737e+16
5.83864113e+16
5.93569188e+16
6.02578907e+16
6.10910347e+16
6.18579817e+16
6.25602944e+16
6.3199476e+16
6.37769782e+16
6.42942088e+16
6.4752539e+16
6.51533095e+16
6.54978377e+16
6.57874231e+16
6.60233531e+16
6.62069088e+16
6.63393697e+16
6.64220189e+16
6.6456148e+16
6.64430609e+16
6.63840786e+16
6.62805423e+16
6.61338168e+16
6.59452925e+16
6.57163856e+16
6.54485348e+16
6.514792e+16
6.48357279e+16
6.45126801e+16
6.41795436e+16
6.3837128e+16
6.34862835e+16
6.31278971e+16
6.27628896e+16
6.23922115e+16
6.20168392e+16
6.16377703e+16
6.1256019e+16
6.08726114e+16
6.048858e+16
6.01049589e+16
5.9722778e+16
5.9343058e+16
5.89668052e+16
5.85950067e+16
5.82286261e+16
5.78685996e+16
5.7515834e+16
5.71712049e+16
5.68355575e+16
5.65097089e+16
5.61944537e+16
5.58905722e+16
5.55988432e+16
5.5320061e+16
5.50550587e+16
5.48047376e+16
5.45701057e+16
5.43523253e+16
5.41527724e+16
5.39731108e+16
5.38153831e+16
5.36821239e+16
5.35765012e+16
5.35024945e+16
5.3465127e+16
5.34707742e+16
5.35275979e+16
5.36461911e+16
5.38406092e+16
5.41302041e+16
5.45432111e+16
5.51252738e+16
3.73728179e+15
4.78699973e+15
6.98642719e+15
1.01219773e+16
1.3771343e+16
1.76414813e+16
2.15584787e+16
2.54235544e+16
2.91821495e+16
3.28053976e+16
3.62793707e+16
3.95988385e+16
4.27636081e+16
4.57763542e+16
4.86413195e+16
5.13635315e+16
5.39483315e+16
5.64010917e+16
5.87270516e+16
6.09312254e+16
6.30183551e+16
6.4992892e+16
6.68589951e+16
6.862054e+16
7.02811332e+16
7.18441305e+16
7.3312656e+16
7.46896212e+16
7.59777442e+16
7.71795676e+16
7.82974757e+16
7.93337097e+16
8.0290383e+16
8.11694943e+16
8.19729402e+16
8.27025263e+16
8.3359978e+16
8.39469503e+16
8.44650364e+16
8.49157766e+16
8.53006653e+16
8.56211592e+16
8.58786834e+16
8.6074638e+16
8.62104041e+16
8.62873494e+16
8.63068336e+16
8.62702128e+16
8.61788437e+16
8.60340873e+16
8.58373108e+16
8.5589888e+16
8.52931965e+16
8.49482836e+16
8.45775845e+16
8.41819664e+16
8.37623336e+16
8.33196258e+16
8.28548166e+16
8.23689113e+16
8.18629437e+16
8.13379725e+16
8.07950769e+16
8.02353515e+16
7.96599009e+16
7.90698329e+16
7.84662516e+16
7.78502501e+16
7.72229022e+16
7.65852537e+16
7.59383137e+16
7.52830456e+16
7.4620358e+16
7.39510969e+16
7.32760372e+16
7.25958769e+16
7.19112325e+16
7.12226368e+16
7.05305409e+16
6.98353199e+16
6.91372854e+16
6.84367046e+16
6.77338295e+16
6.70289382e+16
6.6322391e+16
6.56147051e+16
6.49066543e+16
6.41993975e+16
6.34946472e+16
6.27948874e+16
6.21036595e+16
6.14259397e+16
6.07686505e+16
6.01413735e+16
5.95573931e+16
5.9035322e+16
5.86018446e+16
5.82968898e+16
5.81847586e+16
5.83838068e+16
4.24587968e+15
6.2419043e+15
9.77245991e+15
1.4156345e+16
1.89043659e+16
2.37422072e+16
2.85220835e+16
3.31663004e+16
3.76358265e+16
4.1913105e+16
4.59925618e+16
4.98752812e+16
5.35659671e+16
5.7071189e+16
6.03983597e+16
6.35551422e+16
6.65491077e+16
6.93875449e+16
7.20773614e+16
7.46250384e+16
7.70366199e+16
7.93177207e+16
8.14735452e+16
8.35089132e+16
8.54282869e+16
8.72357998e+16
8.89352842e+16
9.05302984e+16
9.20241508e+16
9.34199241e+16
9.47204962e+16
9.59285598e+16
9.70466409e+16
9.80771148e+16
9.90222213e+16
9.98840786e+16
1.00664696e+17
1.01365984e+17
1.01989768e+17
1.02537795e+17
1.03011744e+17
1.03413235e+17
1.03743837e+17
1.04005072e+17
1.04198428e+17
1.04325357e+17
1.04387291e+17
1.04385636e+17
1.04321787e+17
1.04197124e+17
1.04013018e+17
1.0377083e+17
1.0347191e+17
1.03113668e+17
1.0271907e+17
1.02289051e+17
1.01824569e+17
1.01326606e+17
1.00796161e+17
1.00234257e+17
9.9641928e+16
9.90202246e+16
9.83702029e+16
9.76929213e+16
9.69894333e+16
9.62607792e+16
9.55079776e+16
9.47320152e+16
9.39338356e+16
9.3114327e+16
9.22743096e+16
9.14145211e+16
9.05356027e+16
8.96380841e+16
8.87223686e+16
8.77887192e+16
8.68372451e+16
8.5867891e+16
8.48804288e+16
8.38744538e+16
8.28493869e+16
8.1804485e+16
8.07388613e+16
7.96515211e+16
7.85414142e+16
7.74075129e+16
7.62489204e+16
7.50650204e+16
7.38556808e+16
7.26215309e+16
7.13643378e+16
7.0087523e+16
6.87968876e+16
6.75016577e+16
6.62160655e+16
6.49618932e+16
6.37729209e+16
6.27036367e+16
6.18489438e+16
6.14001271e+16
4.92733826e+15
8.33124465e+15
1.3283924e+16
1.88286519e+16
2.45296442e+16
3.01750704e+16
3.5660447e+16
4.09357397e+16
4.59794895e+16
5.07855275e+16
5.5355898e+16
5.96969814e+16
6.38173212e+16
6.77263921e+16
7.14338967e+16
7.49493701e+16
7.82819619e+16
8.1440326e+16
8.4432573e+16
8.72662605e+16
8.99484055e+16
9.24855092e+16
9.48835877e+16
9.7148207e+16
9.92845167e+16
1.01297285e+17
1.03190929e+17
1.04969549e+17
1.06636953e+17
1.08196684e+17
1.09652046e+17
1.11006124e+17
1.12261804e+17
1.13421794e+17
1.14488636e+17
1.15464728e+17
1.16352332e+17
1.17153591e+17
1.17870539e+17
1.18505111e+17
1.19059158e+17
1.1953445e+17
1.19932688e+17
1.20255514e+17
1.20504515e+17
1.20681231e+17
1.20787162e+17
1.20823772e+17
1.20792498e+17
1.20694747e+17
1.20531905e+17
1.20305336e+17
1.20016375e+17
1.19663018e+17
1.19261988e+17
1.18817487e+17
1.183305e+17
1.17802019e+17
1.1723304e+17
1.16624568e+17
1.15977608e+17
1.15293163e+17
1.14572231e+17
1.13815792e+17
1.13024807e+17
1.12200205e+17
1.11342869e+17
1.10453632e+17
1.09533253e+17
1.08582407e+17
1.07601668e+17
1.06591486e+17
1.05552172e+17
1.0448387e+17
1.0338654e+17
1.02259933e+17
1.01103564e+17
9.99166977e+16
9.86983181e+16
9.74471168e+16
9.61614772e+16
9.48394673e+16
9.34788426e+16
9.20770612e+16
9.06313171e+16
8.91385975e+16
8.75957723e+16
8.59997292e+16
8.43475671e+16
8.2636875e+16
8.08661274e+16
7.90352503e+16
7.71464454e+16
7.52054239e+16
7.32233376e+16
7.12199983e+16
6.92297108e+16
6.73131399e+16
6.55853883e+16
6.43001398e+16
5.72023256e+15
1.0882214e+16
1.72092987e+16
2.37927125e+16
3.03155272e+16
3.66441591e+16
4.27208418e+16
4.85232088e+16
5.40464445e+16
5.92946575e+16
6.42764579e+16
6.90025972e+16
7.34846719e+16
7.77344037e+16
8.17632391e+16
8.5582133e+16
8.92014404e+16
9.26308711e+16
9.58794826e+16
9.89556952e+16
1.0186732e+17
1.04621594e+17
1.07225218e+17
1.09684394e+17
1.12004865e+17
1.14191952e+17
1.16250587e+17
1.18185347e+17
1.20000484e+17
1.21699952e+17
1.23287437e+17
1.24766373e+17
1.26139971e+17
1.27411236e+17
1.28582985e+17
1.29657864e+17
1.30638366e+17
1.31526841e+17
1.32325511e+17
1.33036483e+17
1.33661761e+17
1.3420325e+17
1.34662776e+17
1.35042084e+17
1.35342855e+17
1.35566708e+17
1.35715208e+17
1.35789874e+17
1.3579218e+17
1.35723567e+17
1.35585435e+17
1.35379153e+17
1.35106053e+17
1.34767428e+17
1.34369512e+17
1.33921792e+17
1.33425262e+17
1.32880913e+17
1.32289726e+17
1.31652678e+17
1.30970733e+17
1.30244837e+17
1.29475918e+17
1.28664872e+17
1.27812557e+17
1.26919778e+17
1.25987282e+17
1.25015734e+17
1.24005705e+17
1.22957653e+17
1.21871899e+17
1.20748605e+17
1.19587747e+17
1.18389087e+17
1.17152143e+17
1.15876156e+17
1.14560056e+17
1.13202428e+17
1.11801476e+17
1.10354989e+17
1.08860307e+17
1.07314296e+17
1.05713322e+17
1.04053239e+17
1.02329393e+17
1.00536639e+17
9.86693936e+16
9.67217247e+16
9.46874958e+16
9.25605952e+16
9.03352803e+16
8.80067006e+16
8.55716948e+16
8.30300407e+16
8.03864966e+16
7.76543518e+16
7.48621378e+16
7.20678826e+16
6.93944605e+16
6.71413134e+16
6.68225991e+15
1.36962025e+16
2.12948501e+16
2.88042437e+16
3.60494679e+16
4.29750262e+16
4.95668276e+16
5.58276112e+16
6.17674254e+16
6.73994659e+16
7.27381061e+16
7.77979148e+16
8.25931475e+16
8.71374842e+16
9.1443896e+16
9.55245887e+16
9.93909874e+16
1.03053748e+17
1.06522782e+17
1.09807296e+17
1.12915827e+17
1.15856288e+17
1.18636009e+17
1.21261781e+17
1.23739894e+17
1.2607618e+17
1.28276044e+17
1.30344505e+17
1.32286221e+17
1.34105525e+17
1.35806447e+17
1.37392743e+17
1.38867919e+17
1.40235248e+17
1.41497794e+17
1.42658429e+17
1.43719849e+17
1.4468459e+17
1.45555043e+17
1.46333465e+17
1.47021996e+17
1.47622662e+17
1.48137395e+17
1.48568035e+17
1.48916342e+17
1.49184005e+17
1.49372647e+17
1.49483833e+17
1.49519075e+17
1.49479836e+17
1.49367534e+17
1.49183543e+17
1.48929193e+17
1.48605764e+17
1.48216512e+17
1.47772382e+17
1.47274371e+17
1.46723459e+17
1.46120606e+17
1.45466754e+17
1.4476282e+17
1.44009692e+17
1.43208225e+17
1.42359228e+17
1.41463455e+17
1.40521595e+17
1.39534254e+17
1.3850194e+17
1.37425043e+17
1.36303812e+17
1.35138331e+17
1.33928488e+17
1.32673947e+17
1.31374111e+17
1.30028087e+17
1.28634641e+17
1.27192156e+17
1.25698584e+17
1.241514e+17
1.22547546e+17
1.20883379e+17
1.19154624e+17
1.17356318e+17
1.15482768e+17
1.13527512e+17
1.11483296e+17
1.09342065e+17
1.07094992e+17
1.04732543e+17
1.02244617e+17
9.9620779e+16
9.68506574e+16
9.39245993e+16
9.08347645e+16
8.75770281e+16
8.41544796e+16
8.0584408e+16
7.69139421e+16
7.32609641e+16
6.99509356e+16
7.79403171e+15
1.6618117e+16
2.53760666e+16
3.37196697e+16
4.16158851e+16
4.90802342e+16
5.61370377e+16
6.28109509e+16
6.91250845e+16
7.51007456e+16
8.07575644e+16
8.61136799e+16
9.11858993e+16
9.59898253e+16
1.00539954e+17
1.04849754e+17
1.08931739e+17
1.12797525e+17
1.16457889e+17
1.19922825e+17
1.23201596e+17
1.26302784e+17
1.29234336e+17
1.32003616e+17
1.34617442e+17
1.37082134e+17
1.39403549e+17
1.41587117e+17
1.43637879e+17
1.45560516e+17
1.47359378e+17
1.49038514e+17
1.50601696e+17
1.52052439e+17
1.53394028e+17
1.54629534e+17
1.55761834e+17
1.56793627e+17
1.57727449e+17
1.5856569e+17
1.59310604e+17
1.59964322e+17
1.60528866e+17
1.61006154e+17
1.61398016e+17
1.61706198e+17
1.6193237e+17
1.62078136e+17
1.62145037e+17
1.62134556e+17
1.62048124e+17
1.61887119e+17
1.61652867e+17
1.61346635e+17
1.60969318e+17
1.60532963e+17
1.60038563e+17
1.59487087e+17
1.58879471e+17
1.58216625e+17
1.57499419e+17
1.56728686e+17
1.55905211e+17
1.55029722e+17
1.54102877e+17
1.53125254e+17
1.52097333e+17
1.51019475e+17
1.49891901e+17
1.48714671e+17
1.4748765e+17
1.46210477e+17
1.44882533e+17
1.43502893e+17
1.4207029e+17
1.40583059e+17
1.39039086e+17
1.37435752e+17
1.35769864e+17
1.34037591e+17
1.32234394e+17
1.30354946e+17
1.28393054e+17
1.26341581e+17
1.24192367e+17
1.21936148e+17
1.19562492e+17
1.17059743e+17
1.14414993e+17
1.11614099e+17
1.08641761e+17
1.05481734e+17
1.02117233e+17
9.8531729e+16
9.4710469e+16
9.06435527e+16
8.63325573e+16
8.18064465e+16
7.716596e+16
7.27416977e+16
9.01774219e+15
1.95455658e+16
2.93593468e+16
3.84652383e+16
4.69611235e+16
5.49243753e+16
6.24122158e+16
6.94681905e+16
7.61269121e+16
8.24170628e+16
8.83632409e+16
9.39871007e+16
9.93080594e+16
1.04343748e+17
1.09110305e+17
1.13622577e+17
1.17894259e+17
1.21938008e+17
1.2576553e+17
1.29387653e+17
1.32814394e+17
1.36055023e+17
1.39118114e+17
1.420116e+17
1.4474282e+17
1.47318568e+17
1.49745132e+17
1.52028336e+17
1.54173577e+17
1.56185859e+17
1.58069825e+17
1.59829789e+17
1.6146976e+17
1.62993471e+17
1.644044e+17
1.65705791e+17
1.66900677e+17
1.67991896e+17
1.68982108e+17
1.69873812e+17
1.70669359e+17
1.71370965e+17
1.71980726e+17
1.72500626e+17
1.72932547e+17
1.7327828e+17
1.73539534e+17
1.73717942e+17
1.73815066e+17
1.73832404e+17
1.73771394e+17
1.73633416e+17
1.73419788e+17
1.73131771e+17
1.72768364e+17
1.72342459e+17
1.71855045e+17
1.71307073e+17
1.70699456e+17
1.70033068e+17
1.69308736e+17
1.68527239e+17
1.67689296e+17
1.66795558e+17
1.65846595e+17
1.64842882e+17
1.63784782e+17
1.62672521e+17
1.6150617e+17
1.60285614e+17
1.59010521e+17
1.57680308e+17
1.56294097e+17
1.54850673e+17
1.53348431e+17
1.51785323e+17
1.50158789e+17
1.48465696e+17
1.46702255e+17
1.44863942e+17
1.42945405e+17
1.40940367e+17
1.38841517e+17
1.36640397e+17
1.34327279e+17
1.31891035e+17
1.29318997e+17
1.26596825e+17
1.23708362e+17
1.20635513e+17
1.17358141e+17
1.13854035e+17
1.10098997e+17
1.06067199e+17
1.01732136e+17
9.70689125e+16
9.2059905e+16
8.67097922e+16
8.10911253e+16
7.55188706e+16
1.03134343e+16
2.24168775e+16
3.31972226e+16
4.30091743e+16
5.20667871e+16
6.05002378e+16
6.83946796e+16
7.58099533e+16
8.27909096e+16
8.93730705e+16
9.55858561e+16
1.01454486e+17
1.07001127e+17
1.12245609e+17
1.17205882e+17
1.21898319e+17
1.26337931e+17
1.30538521e+17
1.34512801e+17
1.38272496e+17
1.4182842e+17
1.45190556e+17
1.48368118e+17
1.51369611e+17
1.54202889e+17
1.56875208e+17
1.59393269e+17
1.61763267e+17
1.6399093e+17
1.6608156e+17
1.68040065e+17
1.69870996e+17
1.71578572e+17
1.73166713e+17
1.74639063e+17
1.75999016e+17
1.77249734e+17
1.78394169e+17
1.79435084e+17
1.80375065e+17
1.81216541e+17
1.81961795e+17
1.82612979e+17
1.83172127e+17
1.83641161e+17
1.84021907e+17
1.84316099e+17
1.84525391e+17
1.84651358e+17
1.84695509e+17
1.84659282e+17
1.84544055e+17
1.8435114e+17
1.84081785e+17
1.83733462e+17
1.83319716e+17
1.82841529e+17
1.82299835e+17
1.81695523e+17
1.81029432e+17
1.8030235e+17
1.79515004e+17
1.7866805e+17
1.77762071e+17
1.76797554e+17
1.7577488e+17
1.74694303e+17
1.73555931e+17
1.72359696e+17
1.71105325e+17
1.69792311e+17
1.68419867e+17
1.66986887e+17
1.65491895e+17
1.63932986e+17
1.62307768e+17
1.60613287e+17
1.5884595e+17
1.57001437e+17
1.55074603e+17
1.53059373e+17
1.50948614e+17
1.48734008e+17
1.46405901e+17
1.43953136e+17
1.41362873e+17
1.38620377e+17
1.357088e+17
1.32608917e+17
1.29298854e+17
1.25753781e+17
1.21945603e+17
1.17842666e+17
1.1340959e+17
1.08607458e+17
1.03395035e+17
9.77328853e+16
9.15964165e+16
8.50202661e+16
7.82838788e+16
1.16470289e+16
2.51978802e+16
3.68696983e+16
4.73430948e+16
5.69331508e+16
6.58147751e+16
7.40968527e+16
8.18534063e+16
8.91385397e+16
9.59942385e+16
1.02454689e+17
1.08548778e+17
1.14301592e+17
1.19735346e+17
1.24869982e+17
1.29723559e+17
1.34312534e+17
1.38651963e+17
1.42755647e+17
1.46636266e+17
1.50305471e+17
1.53773983e+17
1.57051664e+17
1.60147594e+17
1.63070133e+17
1.65826982e+17
1.68425236e+17
1.70871437e+17
1.73171621e+17
1.75331356e+17
1.77355788e+17
1.79249676e+17
1.8101742e+17
1.826631e+17
1.841905e+17
1.85603133e+17
1.86904267e+17
1.88096948e+17
1.89184014e+17
1.90168122e+17
1.91051758e+17
1.91837254e+17
1.92526804e+17
1.93122474e+17
1.93626216e+17
1.94039878e+17
1.94365209e+17
1.94603876e+17
1.9475746e+17
1.94827471e+17
1.94815348e+17
1.94722462e+17
1.94550116e+17
1.94299545e+17
1.93966969e+17
1.93566455e+17
1.93098973e+17
1.92565444e+17
1.91966732e+17
1.91303646e+17
1.90576932e+17
1.89787273e+17
1.8893527e+17
1.8802144e+17
1.87046196e+17
1.86009835e+17
1.84912516e+17
1.83754234e+17
1.82534799e+17
1.81253799e+17
1.79910565e+17
1.78504133e+17
1.77033191e+17
1.75496029e+17
1.73890477e+17
1.72213836e+17
1.70462801e+17
1.68633371e+17
1.66720753e+17
1.64719252e+17
1.62622141e+17
1.60421529e+17
1.5810819e+17
1.55671392e+17
1.53098685e+17
1.50375669e+17
1.47485713e+17
1.44409647e+17
1.41125384e+17
1.37607486e+17
1.33826641e+17
1.29749056e+17
1.25335748e+17
1.20541764e+17
1.15315487e+17
1.09598511e+17
1.03327725e+17
9.64453276e+16
8.8939686e+16
8.10361754e+16
1.29924565e+16
2.7871776e+16
4.03722764e+16
5.14709001e+16
6.15696851e+16
7.0881397e+16
7.95352275e+16
8.76177139e+16
9.51914713e+16
1.02304698e+17
1.08996348e+17
1.15299099e+17
1.21241128e+17
1.26847218e+17
1.32139466e+17
1.37137765e+17
1.41860139e+17
1.46322985e+17
1.50541269e+17
1.5452867e+17
1.5829771e+17
1.61859862e+17
1.65225644e+17
1.68404702e+17
1.71405889e+17
1.74237334e+17
1.76906502e+17
1.79420256e+17
1.8178491e+17
1.84006272e+17
1.86089697e+17
1.88040118e+17
1.89862092e+17
1.9155983e+17
1.93137227e+17
1.94597893e+17
1.95945178e+17
1.97182193e+17
1.98311839e+17
1.99336818e+17
2.00259655e+17
2.01082718e+17
2.01808225e+17
2.02438263e+17
2.02974801e+17
2.03419695e+17
2.03774705e+17
2.04041498e+17
2.04221658e+17
2.04316691e+17
2.04328029e+17
2.04257035e+17
2.04105e+17
2.03873149e+17
2.03556656e+17
2.03170019e+17
2.02714199e+17
2.02190098e+17
2.01598561e+17
2.00940367e+17
2.00216229e+17
1.99426785e+17
1.9857259e+17
1.97654101e+17
1.96671668e+17
1.9562551e+17
1.945157e+17
1.93342138e+17
1.92104522e+17
1.90802315e+17
1.89434708e+17
1.88000576e+17
1.86498426e+17
1.84926341e+17
1.83281914e+17
1.81562175e+17
1.79763506e+17
1.77881545e+17
1.75911079e+17
1.73845921e+17
1.71678769e+17
1.69401048e+17
1.67002724e+17
1.64472094e+17
1.61795542e+17
1.58957248e+17
1.55938854e+17
1.52719054e+17
1.49273107e+17
1.4557224e+17
1.41582908e+17
1.37265873e+17
1.32575043e+17
1.27456046e+17
1.2184453e+17
1.15664498e+17
1.08827918e+17
1.01240762e+17
9.28380958e+16
8.37742576e+16
1.43310534e+16
3.04322979e+16
4.37087803e+16
5.54024717e+16
6.59898777e+16
7.57159052e+16
8.47273187e+16
9.31218885e+16
1.00970204e+17
1.08326521e+17
1.15234601e+17
1.21731042e+17
1.2784727e+17
1.33610794e+17
1.39046012e+17
1.44174772e+17
1.49016761e+17
1.53589795e+17
1.57910053e+17
1.61992252e+17
1.65849802e+17
1.69494934e+17
1.72938815e+17
1.76191649e+17
1.7926276e+17
1.82160683e+17
1.84893228e+17
1.87467551e+17
1.89890212e+17
1.92167232e+17
1.94304141e+17
1.96306024e+17
1.98177562e+17
1.9992307e+17
2.0154653e+17
2.03051624e+17
2.04441759e+17
2.05720097e+17
2.06889574e+17
2.07952923e+17
2.08912694e+17
2.09771269e+17
2.10530882e+17
2.11193627e+17
2.11761476e+17
2.1223629e+17
2.12619825e+17
2.12913746e+17
2.13119629e+17
2.13238974e+17
2.13273202e+17
2.13223665e+17
2.13091642e+17
2.12878341e+17
2.1257806e+17
2.12205659e+17
2.11762089e+17
2.11248238e+17
2.1066493e+17
2.1001292e+17
2.0929289e+17
2.08505442e+17
2.07651087e+17
2.06730232e+17
2.05743169e+17
2.04690052e+17
2.03570878e+17
2.02385461e+17
2.01133402e+17
1.99814056e+17
1.98426488e+17
1.96969433e+17
1.95441236e+17
1.93839799e+17
1.92162505e+17
1.90406144e+17
1.88566821e+17
1.86639856e+17
1.84619662e+17
1.82499617e+17
1.80271905e+17
1.77927342e+17
1.75455171e+17
1.72842819e+17
1.70075616e+17
1.6713646e+17
1.64005416e+17
1.60659223e+17
1.5707069e+17
1.53207944e+17
1.49033464e+17
1.44502846e+17
1.39563185e+17
1.34150943e+17
1.28189191e+17
1.21584226e+17
1.14222343e+17
1.05971066e+17
9.67063566e+16
8.64962272e+16
1.56500977e+16
3.28793462e+16
4.68872028e+16
5.91502091e+16
7.02084997e+16
8.03344357e+16
8.96902081e+16
9.83838626e+16
1.06493591e+17
1.14079631e+17
1.21190614e+17
1.27867179e+17
1.34144144e+17
1.40051874e+17
1.45617187e+17
1.50863978e+17
1.5581367e+17
1.60485552e+17
1.64897048e+17
1.69063932e+17
1.73000506e+17
1.76719755e+17
1.80233485e+17
1.83552431e+17
1.86686373e+17
1.89644218e+17
1.92434096e+17
1.95063423e+17
1.97538979e+17
1.99866966e+17
2.0205306e+17
2.04102469e+17
2.06019972e+17
2.07809962e+17
2.09476485e+17
2.1102327e+17
2.12453764e+17
2.13771155e+17
2.149784e+17
2.16078247e+17
2.17073253e+17
2.17965806e+17
2.18758138e+17
2.19452342e+17
2.20050386e+17
2.20554121e+17
2.20965297e+17
2.21285566e+17
2.21516497e+17
2.21659574e+17
2.21716206e+17
2.21687732e+17
2.21575416e+17
2.21380451e+17
2.21096378e+17
2.20738379e+17
2.20307393e+17
2.19804297e+17
2.19229897e+17
2.18584925e+17
2.17870038e+17
2.17085805e+17
2.16232702e+17
2.15311092e+17
2.14321217e+17
2.13263174e+17
2.12136895e+17
2.10942121e+17
2.09678368e+17
2.08344895e+17
2.0694066e+17
2.05464273e+17
2.0391394e+17
2.022874e+17
2.00581856e+17
1.98793884e+17
1.96919348e+17
1.94953284e+17
1.92889776e+17
1.90721815e+17
1.88441131e+17
1.86037998e+17
1.83501011e+17
1.80816816e+17
1.77969798e+17
1.74941694e+17
1.71711135e+17
1.68253072e+17
1.64538061e+17
1.60531353e+17
1.56191713e+17
1.51469867e+17
1.46306413e+17
1.40628984e+17
1.34348354e+17
1.27353224e+17
1.19503865e+17
1.10627795e+17
1.00537179e+17
8.92000998e+16
1.69413152e+16
3.52162882e+16
4.99173579e+16
6.27271781e+16
7.42402138e+16
8.47524705e+16
9.44399091e+16
1.03420157e+17
1.11778774e+17
1.19581958e+17
1.2688329e+17
1.33727564e+17
1.40153102e+17
1.46193235e+17
1.51877285e+17
1.57231263e+17
1.62278373e+17
1.67039407e+17
1.7153305e+17
1.75776133e+17
1.79783844e+17
1.83569908e+17
1.87146742e+17
1.90525596e+17
1.93716668e+17
1.96729216e+17
1.99571651e+17
2.02251625e+17
2.04776104e+17
2.07151439e+17
2.0938343e+17
2.11477376e+17
2.13438131e+17
2.15270141e+17
2.16977494e+17
2.18563948e+17
2.20032967e+17
2.21387752e+17
2.22631263e+17
2.23766248e+17
2.2479526e+17
2.25720678e+17
2.26544724e+17
2.27269481e+17
2.27896901e+17
2.28428822e+17
2.28866979e+17
2.2921301e+17
2.29468466e+17
2.29634816e+17
2.29713453e+17
2.297057e+17
2.29612805e+17
2.29435945e+17
2.29175543e+17
2.28831892e+17
2.28413491e+17
2.27921208e+17
2.27355844e+17
2.2671812e+17
2.26008679e+17
2.25228074e+17
2.24376756e+17
2.23455063e+17
2.22463201e+17
2.21401228e+17
2.20269026e+17
2.19066278e+17
2.17792432e+17
2.16446669e+17
2.15027855e+17
2.13534495e+17
2.11964674e+17
2.10315992e+17
2.08585489e+17
2.06769559e+17
2.04863849e+17
2.02863144e+17
2.00761238e+17
1.98550778e+17
1.96223089e+17
1.93767962e+17
1.91173413e+17
1.88425387e+17
1.85507416e+17
1.82400188e+17
1.79081031e+17
1.75523263e+17
1.71695367e+17
1.67559935e+17
1.6307227e+17
1.58178524e+17
1.52813137e+17
1.46895276e+17
1.40323792e+17
1.3297007e+17
1.24668302e+17
1.15205006e+17
1.04324836e+17
9.18839718e+16
1.81996317e+16
3.74483174e+16
5.28095836e+16
6.61461607e+16
7.80989126e+16
8.89844166e+16
9.89911482e+16
1.0824584e+17
1.16841288e+17
1.24849678e+17
1.32329623e+17
1.39330172e+17
1.45893248e+17
1.52055222e+17
1.57847979e+17
1.63299684e+17
1.68435349e+17
1.73277275e+17
1.77845406e+17
1.82157618e+17
1.86229964e+17
1.90076882e+17
1.93711377e+17
1.97145176e+17
2.0038887e+17
2.0345203e+17
2.0634332e+17
2.09070592e+17
2.11640972e+17
2.14060933e+17
2.16336366e+17
2.18472641e+17
2.20474659e+17
2.22346903e+17
2.24093479e+17
2.25718157e+17
2.27224402e+17
2.28615411e+17
2.29894135e+17
2.31063309e+17
2.3212547e+17
2.3308298e+17
2.33938042e+17
2.34692718e+17
2.35348941e+17
2.35908528e+17
2.36373194e+17
2.36744557e+17
2.37024148e+17
2.37213417e+17
2.37313741e+17
2.37326421e+17
2.3725269e+17
2.37093711e+17
2.36850572e+17
2.36521379e+17
2.36115876e+17
2.35634912e+17
2.35079262e+17
2.3444962e+17
2.33746598e+17
2.32970712e+17
2.32122378e+17
2.31201893e+17
2.30209422e+17
2.29144975e+17
2.28008388e+17
2.26799288e+17
2.25517064e+17
2.2416083e+17
2.22729377e+17
2.21221123e+17
2.19634055e+17
2.17965659e+17
2.16212843e+17
2.14371845e+17
2.12438131e+17
2.10406277e+17
2.08269825e+17
2.06021126e+17
2.0365115e+17
2.01149265e+17
1.98502973e+17
1.95697597e+17
1.92715904e+17
1.89537636e+17
1.86138941e+17
1.82491645e+17
1.78562334e+17
1.7431114e+17
1.69690149e+17
1.64641224e+17
1.59092988e+17
1.52956534e+17
1.46119212e+17
1.38435487e+17
1.29713661e+17
1.19698699e+17
1.08064899e+17
9.45461068e+16
1.94222183e+16
3.958147e+16
5.55740479e+16
6.94191996e+16
8.17974442e+16
9.30434721e+16
1.03357347e+17
1.12874602e+17
1.21695225e+17
1.29897445e+17
1.37544993e+17
1.4469126e+17
1.51381836e+17
1.57656187e+17
1.63548792e+17
1.69089987e+17
1.74306592e+17
1.79222406e+17
1.83858613e+17
1.88234107e+17
1.92365778e+17
1.96268745e+17
1.99956564e+17
2.03441406e+17
2.06734216e+17
2.09844847e+17
2.12782184e+17
2.15554248e+17
2.18168293e+17
2.20630888e+17
2.22947992e+17
2.25125021e+17
2.27166904e+17
2.29078137e+17
2.3086283e+17
2.32524747e+17
2.34067342e+17
2.35493794e+17
2.36807033e+17
2.3800977e+17
2.39104519e+17
2.40093614e+17
2.40979233e+17
2.41763411e+17
2.42448055e+17
2.43034959e+17
2.4352581e+17
2.43922204e+17
2.44225649e+17
2.44437575e+17
2.44559336e+17
2.44592216e+17
2.44537429e+17
2.44396121e+17
2.44169364e+17
2.4385449e+17
2.43461759e+17
2.42992013e+17
2.42446017e+17
2.41824456e+17
2.41127927e+17
2.40356931e+17
2.3951186e+17
2.38592983e+17
2.37600434e+17
2.36534184e+17
2.35394022e+17
2.34179526e+17
2.32890027e+17
2.31524575e+17
2.30081887e+17
2.28560302e+17
2.26957713e+17
2.25271503e+17
2.23498462e+17
2.21634692e+17
2.19675501e+17
2.17615281e+17
2.15447356e+17
2.13163821e+17
2.10755338e+17
2.08210904e+17
2.0551757e+17
2.0266011e+17
1.99620608e+17
1.96377959e+17
1.92907246e+17
1.89178942e+17
1.85157889e+17
1.80801961e+17
1.76060254e+17
1.70870623e+17
1.65156207e+17
1.58820425e+17
1.51739583e+17
1.43751701e+17
1.34639557e+17
1.24106387e+17
1.11754018e+17
9.71849745e+16
2.06077914e+16
4.16220452e+16
5.82203975e+16
7.25574118e+16
8.53475396e+16
9.69416369e+16
1.07550699e+17
1.1731889e+17
1.26353409e+17
1.34738607e+17
1.42543417e+17
1.49825638e+17
1.56634582e+17
1.63012829e+17
1.68997466e+17
1.74620991e+17
1.79912013e+17
1.84895806e+17
1.89594758e+17
1.94028747e+17
1.98215457e+17
2.0217065e+17
2.05908394e+17
2.09441266e+17
2.12780528e+17
2.15936281e+17
2.18917597e+17
2.21732636e+17
2.24388752e+17
2.26892586e+17
2.2925014e+17
2.31466855e+17
2.3354767e+17
2.35497079e+17
2.37319177e+17
2.39017711e+17
2.40596109e+17
2.42057523e+17
2.43404853e+17
2.44640778e+17
2.45767778e+17
2.46788156e+17
2.47704058e+17
2.48517487e+17
2.49230321e+17
2.49844322e+17
2.50361152e+17
2.50782378e+17
2.51109486e+17
2.51343879e+17
2.51486891e+17
2.51539785e+17
2.51503757e+17
2.51379933e+17
2.51169373e+17
2.50868701e+17
2.50488648e+17
2.50030048e+17
2.49493659e+17
2.48880155e+17
2.48190123e+17
2.47424052e+17
2.46582318e+17
2.45665174e+17
2.44672732e+17
2.43604936e+17
2.42461546e+17
2.412421e+17
2.39945887e+17
2.38571903e+17
2.37118806e+17
2.35584862e+17
2.33967887e+17
2.32265169e+17
2.30473393e+17
2.28588539e+17
2.26605774e+17
2.24519325e+17
2.22322325e+17
2.2000664e+17
2.17562661e+17
2.14979058e+17
2.12242486e+17
2.09337228e+17
2.06244764e+17
2.02943231e+17
1.99406751e+17
1.95604571e+17
1.91499947e+17
1.87048669e+17
1.8219707e+17
1.76879264e+17
1.71013235e+17
1.64495125e+17
1.57190668e+17
1.48921975e+17
1.39446796e+17
1.28426752e+17
1.15389732e+17
9.97992627e+16
2.17561115e+16
4.35762725e+16
6.07576018e+16
7.55709458e+16
8.87598412e+16
1.00689789e+17
1.11582274e+17
1.21590038e+17
1.30827554e+17
1.39385385e+17
1.47337746e+17
1.54746897e+17
1.61665894e+17
1.68140444e+17
1.74210225e+17
1.79909873e+17
1.85269751e+17
1.90316565e+17
1.95073865e+17
1.99562466e+17
2.03800802e+17
2.07805231e+17
2.1159029e+17
2.15168922e+17
2.18552671e+17
2.21751846e+17
2.24775676e+17
2.27632433e+17
2.30329545e+17
2.32873698e+17
2.35270919e+17
2.37526654e+17
2.39645836e+17
2.41632938e+17
2.43492035e+17
2.45226839e+17
2.46840746e+17
2.4833687e+17
2.49718073e+17
2.50986997e+17
2.52146083e+17
2.53197596e+17
2.54143645e+17
2.54986199e+17
2.557271e+17
2.56368081e+17
2.56910771e+17
2.57356711e+17
2.57707357e+17
2.57964089e+17
2.58128217e+17
2.58200983e+17
2.58183561e+17
2.58077063e+17
2.57882529e+17
2.57595941e+17