/*--------------------------------*- C++ -*----------------------------------*\
| =========                 |                                                 |
| \\      /  F ield         | OpenFOAM Extend Project: Open source CFD        |
|  \\    /   O peration     | Version:  1.6-ext                               |
|   \\  /    A nd           | Web:      www.extend-project.de                 |
|    \\/     M anipulation  |                                                 |
\*---------------------------------------------------------------------------*/
FoamFile
{
    version     2.0;
    format      ascii;
    class       volScalarField;
    location    "4000";
    object      prec3;
}
// * * * * * * * * * * * * * * * * * * * * * * * * * * * * * * * * * * * * * //

dimensions      [0 -3 0 0 0 0 0];

internalField   nonuniform List<scalar> 
40000
(
2.08950773e+15
2.48453765e+15
2.87761628e+15
3.27427156e+15
3.677871e+15
4.09564098e+15
4.50102462e+15
4.90405977e+15
5.3048332e+15
5.70343643e+15
6.09997458e+15
6.49455021e+15
6.88725985e+15
7.27819587e+15
7.66744966e+15
8.05511456e+15
8.44128834e+15
8.82607492e+15
9.20958577e+15
9.59194071e+15
9.97326861e+15
1.03537078e+16
1.07334063e+16
1.1112522e+16
1.14912224e+16
1.18696848e+16
1.22480957e+16
1.26266506e+16
1.30055532e+16
1.33850149e+16
1.37652541e+16
1.41464945e+16
1.45289647e+16
1.49128966e+16
1.52985236e+16
1.56860794e+16
1.60757959e+16
1.64679014e+16
1.68626185e+16
1.72601616e+16
1.7660735e+16
1.806453e+16
1.84717223e+16
1.88824697e+16
1.9296909e+16
1.97151535e+16
2.01372899e+16
2.05633758e+16
2.0993437e+16
2.14274647e+16
2.18654134e+16
2.23071983e+16
2.27526934e+16
2.32026274e+16
2.36570338e+16
2.41153151e+16
2.45769067e+16
2.50412663e+16
2.55078666e+16
2.5976189e+16
2.6445718e+16
2.69159372e+16
2.73863265e+16
2.78563596e+16
2.83255016e+16
2.87932089e+16
2.92589277e+16
2.9722094e+16
3.01821342e+16
3.06384649e+16
3.10904941e+16
3.15376222e+16
3.19792427e+16
3.24147435e+16
3.28435084e+16
3.32649175e+16
3.36783486e+16
3.40831775e+16
3.44787785e+16
3.48645243e+16
3.52397855e+16
3.56039294e+16
3.59563184e+16
3.62963075e+16
3.66232417e+16
3.6936452e+16
3.72352512e+16
3.75189289e+16
3.7786746e+16
3.80379288e+16
3.82716633e+16
3.84870894e+16
3.86832963e+16
3.88593194e+16
3.90141397e+16
3.91466874e+16
3.92558503e+16
3.93404896e+16
3.93994622e+16
3.94316516e+16
2.47366639e+15
2.93794291e+15
3.40666723e+15
3.92270428e+15
4.43306744e+15
4.94252685e+15
5.45250108e+15
5.96236026e+15
6.47128293e+15
6.97836826e+15
7.48271726e+15
7.98348932e+15
8.47993274e+15
8.97139662e+15
9.45733113e+15
9.93728198e+15
1.0410882e+16
1.08778424e+16
1.13379442e+16
1.17910304e+16
1.22370002e+16
1.26758032e+16
1.31074353e+16
1.35319352e+16
1.3949382e+16
1.43598929e+16
1.47636217e+16
1.51607576e+16
1.55515242e+16
1.59361789e+16
1.63150118e+16
1.66883455e+16
1.70565342e+16
1.74199635e+16
1.77790488e+16
1.81342356e+16
1.84859976e+16
1.88348362e+16
1.9181279e+16
1.95258786e+16
1.98692108e+16
2.02118726e+16
2.05544805e+16
2.08976679e+16
2.12420824e+16
2.15883831e+16
2.19372371e+16
2.22893161e+16
2.26452925e+16
2.30058349e+16
2.33716032e+16
2.37432439e+16
2.41213836e+16
2.45089824e+16
2.49092638e+16
2.53219951e+16
2.57469377e+16
2.61838424e+16
2.66324446e+16
2.70924598e+16
2.75635798e+16
2.80454686e+16
2.85377589e+16
2.90400481e+16
2.95518957e+16
3.00728196e+16
3.06022936e+16
3.11397446e+16
3.16845499e+16
3.22360356e+16
3.27934741e+16
3.33560824e+16
3.39230213e+16
3.44933933e+16
3.5066242e+16
3.56405512e+16
3.62152439e+16
3.67891817e+16
3.73611635e+16
3.7929925e+16
3.84941367e+16
3.90524022e+16
3.96032555e+16
4.01451574e+16
4.06764912e+16
4.11955562e+16
4.17005612e+16
4.21896147e+16
4.26607138e+16
4.31117318e+16
4.3540402e+16
4.39443e+16
4.43208226e+16
4.46671644e+16
4.49802888e+16
4.52568967e+16
4.54933845e+16
4.56858078e+16
4.58298049e+16
4.59206381e+16
2.85202711e+15
3.38430662e+15
3.98541137e+15
4.59772583e+15
5.23128156e+15
5.88406636e+15
6.55264034e+15
7.23275287e+15
7.92004725e+15
8.61049173e+15
9.30056423e+15
9.98729007e+15
1.06682068e+16
1.1341301e+16
1.20049382e+16
1.26577989e+16
1.32988215e+16
1.39271563e+16
1.45421273e+16
1.51432022e+16
1.5729969e+16
1.63021173e+16
1.68594243e+16
1.74017441e+16
1.79289993e+16
1.84411752e+16
1.89383148e+16
1.94205158e+16
1.98879279e+16
2.03407512e+16
2.07792348e+16
2.12036762e+16
2.16144203e+16
2.2011859e+16
2.23964311e+16
2.27686216e+16
2.31289616e+16
2.34780277e+16
2.38164419e+16
2.41448706e+16
2.44640245e+16
2.47746571e+16
2.50775643e+16
2.5373583e+16
2.56635892e+16
2.59484973e+16
2.62292571e+16
2.65068519e+16
2.6782296e+16
2.70566311e+16
2.73309228e+16
2.76062557e+16
2.78837283e+16
2.81666305e+16
2.84621966e+16
2.87707414e+16
2.90925764e+16
2.94280044e+16
2.97773155e+16
3.01407814e+16
3.0518651e+16
3.09111453e+16
3.13184525e+16
3.17407233e+16
3.21780655e+16
3.26305395e+16
3.30981532e+16
3.35808571e+16
3.40785395e+16
3.45910215e+16
3.51180526e+16
3.56593056e+16
3.62143719e+16
3.6782757e+16
3.73638751e+16
3.79570447e+16
3.85614827e+16
3.91762992e+16
3.98004908e+16
4.04329336e+16
4.10723749e+16
4.17174239e+16
4.23665401e+16
4.301802e+16
4.36699811e+16
4.43203424e+16
4.4966802e+16
4.56068096e+16
4.62375344e+16
4.68558264e+16
4.74581712e+16
4.80406349e+16
4.85987975e+16
4.91276698e+16
4.96215844e+16
5.007405e+16
5.04775367e+16
5.08231643e+16
5.11001468e+16
5.12949828e+16
3.23985142e+15
3.89081992e+15
4.59164013e+15
5.34198987e+15
6.14306585e+15
6.98815998e+15
7.86736538e+15
8.77037157e+15
9.68784587e+15
1.06119021e+16
1.1536115e+16
1.24553507e+16
1.33655468e+16
1.42635011e+16
1.51466903e+16
1.60131224e+16
1.68612204e+16
1.76897322e+16
1.84976624e+16
1.92842194e+16
2.00487765e+16
2.07908427e+16
2.151004e+16
2.22060879e+16
2.28787907e+16
2.35280293e+16
2.41537544e+16
2.47559823e+16
2.53347915e+16
2.58903206e+16
2.64227669e+16
2.69323854e+16
2.74194882e+16
2.78844442e+16
2.83276793e+16
2.87496757e+16
2.91509727e+16
2.95321662e+16
2.98939089e+16
3.02369103e+16
3.05619367e+16
3.08698108e+16
3.11614114e+16
3.14376731e+16
3.16995857e+16
3.1948193e+16
3.2184592e+16
3.24099317e+16
3.26254106e+16
3.28322753e+16
3.3031817e+16
3.32253682e+16
3.34142972e+16
3.36007924e+16
3.3795605e+16
3.39994809e+16
3.42131789e+16
3.44374656e+16
3.46731116e+16
3.49208857e+16
3.51815498e+16
3.54558537e+16
3.57445295e+16
3.60482852e+16
3.63677996e+16
3.67037154e+16
3.70566335e+16
3.74271066e+16
3.7815633e+16
3.822265e+16
3.86485278e+16
3.90935632e+16
3.9557973e+16
4.0041888e+16
4.05453464e+16
4.1068287e+16
4.16105426e+16
4.21718326e+16
4.27517548e+16
4.33497761e+16
4.39652225e+16
4.45972657e+16
4.52449085e+16
4.59069655e+16
4.65820403e+16
4.72684965e+16
4.79644213e+16
4.86675806e+16
4.93753626e+16
5.00847071e+16
5.07920168e+16
5.14930451e+16
5.21827525e+16
5.28551171e+16
5.35028803e+16
5.41171857e+16
5.46870382e+16
5.5198448e+16
5.56328905e+16
5.59644595e+16
3.64712334e+15
4.4255298e+15
5.27193223e+15
6.20669012e+15
7.22308011e+15
8.3047875e+15
9.43363306e+15
1.05931297e+16
1.17695923e+16
1.29521435e+16
1.41323205e+16
1.53035994e+16
1.64609595e+16
1.76005257e+16
1.87192889e+16
1.98148934e+16
2.08854786e+16
2.19295616e+16
2.29459509e+16
2.39336831e+16
2.4891977e+16
2.58201997e+16
2.67178421e+16
2.75845016e+16
2.8419869e+16
2.92237197e+16
2.9995907e+16
3.07363579e+16
3.14450698e+16
3.21221085e+16
3.27676068e+16
3.33817637e+16
3.3964844e+16
3.45171778e+16
3.50391609e+16
3.55312542e+16
3.59939846e+16
3.64279444e+16
3.6833792e+16
3.72122517e+16
3.75641139e+16
3.78902354e+16
3.81915388e+16
3.8469013e+16
3.87237124e+16
3.8956757e+16
3.91693314e+16
3.93626839e+16
3.95381256e+16
3.96970283e+16
3.98408225e+16
3.99709936e+16
4.00890782e+16
4.01955752e+16
4.03042264e+16
4.04160861e+16
4.05322373e+16
4.06537873e+16
4.07818637e+16
4.09176099e+16
4.10621801e+16
4.12167341e+16
4.13824316e+16
4.15604261e+16
4.1751859e+16
4.19578528e+16
4.21795048e+16
4.241788e+16
4.26740046e+16
4.29488587e+16
4.32433699e+16
4.35584062e+16
4.38947696e+16
4.42531896e+16
4.4634317e+16
4.50387178e+16
4.54668673e+16
4.59191443e+16
4.63958248e+16
4.68970756e+16
4.74229464e+16
4.79733615e+16
4.85481078e+16
4.91468205e+16
4.97689636e+16
5.04138038e+16
5.10803749e+16
5.1767431e+16
5.2473382e+16
5.31962076e+16
5.39333416e+16
5.46815147e+16
5.54365405e+16
5.61930195e+16
5.69439165e+16
5.76799401e+16
5.83885748e+16
5.90524809e+16
5.96465192e+16
6.01316977e+16
4.08385252e+15
5.00913097e+15
6.05362056e+15
7.22293298e+15
8.49587936e+15
9.84513254e+15
1.12455044e+16
1.2676344e+16
1.4121575e+16
1.55689705e+16
1.70093069e+16
1.84356193e+16
1.98426105e+16
2.12262068e+16
2.25832316e+16
2.39111697e+16
2.52079986e+16
2.64720684e+16
2.77020156e+16
2.88967026e+16
3.0055174e+16
3.11766259e+16
3.22603839e+16
3.33058872e+16
3.43126778e+16
3.52803922e+16
3.62087557e+16
3.70975788e+16
3.79467535e+16
3.8756252e+16
3.95261248e+16
4.02564994e+16
4.09475801e+16
4.15996468e+16
4.22130549e+16
4.27882347e+16
4.33256915e+16
4.38260051e+16
4.42898299e+16
4.47178947e+16
4.51110023e+16
4.547003e+16
4.57959291e+16
4.60897249e+16
4.63525164e+16
4.65854761e+16
4.67898494e+16
4.69669539e+16
4.71181786e+16
4.72449823e+16
4.73488912e+16
4.74314964e+16
4.74944492e+16
4.75380057e+16
4.75751904e+16
4.7608956e+16
4.76406219e+16
4.76715441e+16
4.77031121e+16
4.7736745e+16
4.7773887e+16
4.78160023e+16
4.78645701e+16
4.79210785e+16
4.79870186e+16
4.8063878e+16
4.81531342e+16
4.82562476e+16
4.83746548e+16
4.85097613e+16
4.86629352e+16
4.88355e+16
4.90287289e+16
4.92438387e+16
4.94819847e+16
4.97442564e+16
5.00316737e+16
5.03451844e+16
5.06856616e+16
5.10539032e+16
5.14506307e+16
5.18764888e+16
5.23320439e+16
5.28177814e+16
5.33341002e+16
5.38813018e+16
5.44595715e+16
5.50689485e+16
5.57092773e+16
5.63801346e+16
5.70807186e+16
5.78096849e+16
5.85649038e+16
5.93430984e+16
6.01392979e+16
6.09459867e+16
6.17517165e+16
6.25386979e+16
6.3278136e+16
6.39200637e+16
4.52621492e+15
5.65390178e+15
6.9499558e+15
8.39593035e+15
9.9533953e+15
1.15862717e+16
1.32656044e+16
1.49694769e+16
1.66816709e+16
1.83902386e+16
2.00863201e+16
2.17632542e+16
2.34159362e+16
2.50403688e+16
2.66333497e+16
2.81922568e+16
2.97149011e+16
3.11994252e+16
3.26442344e+16
3.40479476e+16
3.54093644e+16
3.67274414e+16
3.80012751e+16
3.923009e+16
4.04132295e+16
4.15501494e+16
4.26404122e+16
4.36836835e+16
4.46797282e+16
4.5628408e+16
4.65296788e+16
4.73835886e+16
4.81902757e+16
4.89499672e+16
4.96629773e+16
5.03297062e+16
5.09506389e+16
5.15263443e+16
5.20574741e+16
5.25447623e+16
5.29890245e+16
5.33911573e+16
5.37521378e+16
5.40730235e+16
5.43549514e+16
5.4599138e+16
5.48068783e+16
5.49795457e+16
5.51185903e+16
5.52255381e+16
5.53019887e+16
5.53496124e+16
5.53701463e+16
5.53653879e+16
5.5343695e+16
5.53117006e+16
5.5270903e+16
5.52228457e+16
5.51691153e+16
5.51113377e+16
5.50511742e+16
5.4990317e+16
5.4930484e+16
5.48734133e+16
5.48208575e+16
5.47745766e+16
5.47363321e+16
5.47078799e+16
5.46909632e+16
5.46873057e+16
5.46986048e+16
5.47265255e+16
5.47726942e+16
5.4838694e+16
5.49260608e+16
5.50362802e+16
5.51707871e+16
5.5330966e+16
5.55181539e+16
5.57336456e+16
5.59787013e+16
5.62545561e+16
5.65624326e+16
5.69035542e+16
5.72791597e+16
5.76905172e+16
5.81389336e+16
5.86257577e+16
5.91523695e+16
5.97201476e+16
6.03304001e+16
6.098424e+16
6.16823709e+16
6.24247318e+16
6.32099109e+16
6.40341656e+16
6.48897224e+16
6.57616573e+16
6.66215373e+16
6.74126495e+16
4.98466999e+15
6.36492974e+15
7.95811519e+15
9.70953441e+15
1.15658903e+16
1.34867827e+16
1.5443274e+16
1.7414935e+16
1.93872701e+16
2.13498125e+16
2.32948017e+16
2.52162973e+16
2.71095936e+16
2.89708399e+16
3.07967938e+16
3.25846628e+16
3.43320024e+16
3.60366486e+16
3.76966755e+16
3.93103651e+16
4.08761872e+16
4.23927851e+16
4.3858964e+16
4.52736827e+16
4.66360455e+16
4.79452964e+16
4.92008129e+16
5.04021007e+16
5.15487888e+16
5.26406252e+16
5.3677472e+16
5.46593019e+16
5.55861944e+16
5.64583325e+16
5.72759992e+16
5.80395753e+16
5.87495364e+16
5.94064511e+16
6.00109785e+16
6.05638671e+16
6.10659529e+16
6.15181585e+16
6.19214917e+16
6.22770451e+16
6.25859949e+16
6.28496004e+16
6.30692031e+16
6.32462263e+16
6.33821732e+16
6.34786267e+16
6.35372461e+16
6.35597656e+16
6.35479891e+16
6.35037854e+16
6.34336672e+16
6.33463605e+16
6.32435026e+16
6.31267822e+16
6.29979374e+16
6.28587523e+16
6.27110536e+16
6.25567061e+16
6.23976081e+16
6.22356854e+16
6.20728858e+16
6.19111727e+16
6.17525179e+16
6.15988951e+16
6.14522728e+16
6.13146068e+16
6.11878338e+16
6.1073865e+16
6.09745804e+16
6.08918243e+16
6.08274026e+16
6.0783081e+16
6.07605867e+16
6.07616121e+16
6.07878221e+16
6.08408656e+16
6.09223911e+16
6.10340674e+16
6.11776101e+16
6.13548132e+16
6.15675868e+16
6.18179993e+16
6.21083234e+16
6.24410826e+16
6.28190939e+16
6.32454976e+16
6.3723762e+16
6.42576409e+16
6.48510484e+16
6.55077906e+16
6.62310491e+16
6.70224151e+16
6.78800664e+16
6.87951715e+16
6.97440828e+16
7.06689489e+16
5.45941672e+15
7.14028688e+15
9.06366746e+15
1.11359907e+16
1.32949664e+16
1.55008869e+16
1.77282029e+16
1.99600637e+16
2.21849253e+16
2.43944751e+16
2.65823772e+16
2.87435241e+16
3.08735958e+16
3.29688055e+16
3.50257543e+16
3.70413516e+16
3.9012771e+16
4.09374261e+16
4.28129573e+16
4.46372228e+16
4.64082918e+16
4.81244382e+16
4.97841339e+16
5.13860419e+16
5.29290087e+16
5.44120564e+16
5.58343752e+16
5.71953151e+16
5.84943782e+16
5.97312114e+16
6.09055991e+16
6.20174564e+16
6.3066823e+16
6.40538572e+16
6.49788311e+16
6.58421251e+16
6.66442242e+16
6.73857141e+16
6.80672777e+16
6.86896925e+16
6.9253828e+16
6.97606439e+16
7.02111878e+16
7.06065945e+16
7.09480843e+16
7.1236962e+16
7.14746162e+16
7.16625181e+16
7.18022204e+16
7.18953559e+16
7.19436356e+16
7.19488461e+16
7.19128454e+16
7.18375581e+16
7.17276154e+16
7.15937016e+16
7.14375659e+16
7.12610128e+16
7.10659001e+16
7.08541364e+16
7.06276775e+16
7.0388522e+16
7.01387066e+16
6.98803003e+16
6.96153988e+16
6.93461175e+16
6.90745846e+16
6.8802934e+16
6.85332978e+16
6.82677988e+16
6.80085433e+16
6.77576147e+16
6.75170677e+16
6.7288924e+16
6.70751693e+16
6.68777535e+16
6.6698593e+16
6.65395771e+16
6.64025793e+16
6.62894735e+16
6.62021571e+16
6.61425819e+16
6.61127931e+16
6.61149797e+16
6.61515341e+16
6.62251254e+16
6.63387831e+16
6.6495993e+16
6.67008018e+16
6.69579248e+16
6.72728461e+16
6.76518945e+16
6.8102258e+16
6.8631881e+16
6.92491277e+16
6.99619952e+16
7.07764017e+16
7.1692453e+16
7.26956514e+16
7.37333402e+16
5.95030682e+15
7.97296196e+15
1.02465613e+16
1.26444624e+16
1.51027242e+16
1.75869042e+16
2.00773758e+16
2.25621696e+16
2.50332876e+16
2.74847705e+16
2.99116932e+16
3.23096607e+16
3.46745727e+16
3.7002529e+16
3.92898059e+16
4.15328642e+16
4.37283674e+16
4.58732019e+16
4.79644924e+16
4.99996115e+16
5.19761847e+16
5.38920891e+16
5.57454493e+16
5.75346298e+16
5.92582254e+16
6.09150499e+16
6.25041252e+16
6.40246685e+16
6.54760811e+16
6.68579368e+16
6.8169971e+16
6.94120705e+16
7.05842641e+16
7.16867137e+16
7.27197069e+16
7.36836495e+16
7.45790597e+16
7.54065621e+16
7.61668832e+16
7.68608475e+16
7.74893735e+16
7.80534711e+16
7.8554239e+16
7.8992863e+16
7.9370614e+16
7.96888468e+16
7.99489991e+16
8.01525899e+16
8.03012191e+16
8.03965651e+16
8.04403839e+16
8.0434506e+16
8.03808329e+16
8.02813324e+16
8.01387768e+16
7.9965653e+16
7.97637996e+16
7.95351123e+16
7.92815429e+16
7.90050965e+16
7.8707828e+16
7.83918381e+16
7.80592682e+16
7.77122948e+16
7.73531236e+16
7.69839819e+16
7.6607112e+16
7.6224763e+16
7.58391828e+16
7.54526105e+16
7.50672686e+16
7.46853554e+16
7.43090392e+16
7.39404533e+16
7.35816934e+16
7.32348175e+16
7.29018488e+16
7.25847846e+16
7.2285609e+16
7.20063135e+16
7.17489263e+16
7.15155507e+16
7.13084168e+16
7.11299465e+16
7.09828355e+16
7.08701545e+16
7.07954714e+16
7.07629971e+16
7.07777548e+16
7.08457732e+16
7.09742973e+16
7.11720045e+16
7.14492019e+16
7.18179513e+16
7.2292017e+16
7.28864177e+16
7.36160813e+16
7.44923745e+16
7.55139537e+16
7.66399088e+16
6.45684773e+15
8.853199e+15
1.14857529e+16
1.42062237e+16
1.6956388e+16
1.97107266e+16
2.2457159e+16
2.51891785e+16
2.79024005e+16
3.05930511e+16
3.32573568e+16
3.58913586e+16
3.84909177e+16
4.10517978e+16
4.35697661e+16
4.60406897e+16
4.84606131e+16
5.08258174e+16
5.31328602e+16
5.53785998e+16
5.7560207e+16
5.96751661e+16
6.17212695e+16
6.36966071e+16
6.55995519e+16
6.74287444e+16
6.91830756e+16
7.08616694e+16
7.24638661e+16
7.3989206e+16
7.54374143e+16
7.68083866e+16
7.81021765e+16
7.9318983e+16
8.04591405e+16
8.1523109e+16
8.25114659e+16
8.34248989e+16
8.42641992e+16
8.50302569e+16
8.57240557e+16
8.63466698e+16
8.68992601e+16
8.73830727e+16
8.77994357e+16
8.81497586e+16
8.84355305e+16
8.86583189e+16
8.88197687e+16
8.89216007e+16
8.89656101e+16
8.8953664e+16
8.88876983e+16
8.87697133e+16
8.86006825e+16
8.83947268e+16
8.81537542e+16
8.78797311e+16
8.75746806e+16
8.72406802e+16
8.68798587e+16
8.64943916e+16
8.60864966e+16
8.56584275e+16
8.52124678e+16
8.47509235e+16
8.42761155e+16
8.37903711e+16
8.32960153e+16
8.27953624e+16
8.22907075e+16
8.1784318e+16
8.12784273e+16
8.07752284e+16
8.02768712e+16
7.97854617e+16
7.93030653e+16
7.88317156e+16
7.83734292e+16
7.79302288e+16
7.75041763e+16
7.70974182e+16
7.67122463e+16
7.63511762e+16
7.60170481e+16
7.57131537e+16
7.54433934e+16
7.52124699e+16
7.5026122e+16
7.48914041e+16
7.48170132e+16
7.48136609e+16
7.48944785e+16
7.50754202e+16
7.5375581e+16
7.58172337e+16
7.64250996e+16
7.72235687e+16
7.8227928e+16
7.94154126e+16
6.97823257e+15
9.7704329e+15
1.27618873e+16
1.5796974e+16
1.88297668e+16
2.18462897e+16
2.48428106e+16
2.78182815e+16
3.07716031e+16
3.37007606e+16
3.66027127e+16
3.94735689e+16
4.23088503e+16
4.51037488e+16
4.78533481e+16
5.05527985e+16
5.31974457e+16
5.57829207e+16
5.83051973e+16
6.07606239e+16
6.31459373e+16
6.54582615e+16
6.76950981e+16
6.98543091e+16
7.19340961e+16
7.39329781e+16
7.58497672e+16
7.76835454e+16
7.94336417e+16
8.10996104e+16
8.26812114e+16
8.41783915e+16
8.55912679e+16
8.69201126e+16
8.81653397e+16
8.93274931e+16
9.04072363e+16
9.14053433e+16
9.23226913e+16
9.31602538e+16
9.39190953e+16
9.46003671e+16
9.52053031e+16
9.57352175e+16
9.61915023e+16
9.65756254e+16
9.68891294e+16
9.71336303e+16
9.73108165e+16
9.74224477e+16
9.74703533e+16
9.74564302e+16
9.73826405e+16
9.72510072e+16
9.70607943e+16
9.68275796e+16
9.65533234e+16
9.62400437e+16
9.58898151e+16
9.55047661e+16
9.50870765e+16
9.46389727e+16
9.41627232e+16
9.36606324e+16
9.31350341e+16
9.25882838e+16
9.20227504e+16
9.14408077e+16
9.08448247e+16
9.02371563e+16
8.9620134e+16
8.89960564e+16
8.83671818e+16
8.77357207e+16
8.71038321e+16
8.64736216e+16
8.58471446e+16
8.52264141e+16
8.46134166e+16
8.4010136e+16
8.34185899e+16
8.28408792e+16
8.22792559e+16
8.17362124e+16
8.12145981e+16
8.07177677e+16
8.02497704e+16
7.9815586e+16
7.94214202e+16
7.90750669e+16
7.87863518e+16
7.85676645e+16
7.84345877e+16
7.84066109e+16
7.85078844e+16
7.87678656e+16
7.92214333e+16
7.9907223e+16
8.08600261e+16
8.2081216e+16
7.5133976e+15
1.07145218e+16
1.40584619e+16
1.73973644e+16
2.07030271e+16
2.39746541e+16
2.72169856e+16
3.04339879e+16
3.36272416e+16
3.67958992e+16
3.99371415e+16
4.30467371e+16
4.61195562e+16
4.91499954e+16
5.21323035e+16
5.50608221e+16
5.79301521e+16
6.0735264e+16
6.34715634e+16
6.61349239e+16
6.87216966e+16
7.12287027e+16
7.36532149e+16
7.59929322e+16
7.82459505e+16
8.04107312e+16
8.24860697e+16
8.44710651e+16
8.63650907e+16
8.81677668e+16
8.98789358e+16
9.14986395e+16
9.30270985e+16
9.4464694e+16
9.58119518e+16
9.70695285e+16
9.82381988e+16
9.93188456e+16
1.00312451e+17
1.01220087e+17
1.02042915e+17
1.02782172e+17
1.03439176e+17
1.04015315e+17
1.04512051e+17
1.04930911e+17
1.05273494e+17
1.05541464e+17
1.05736551e+17
1.0586055e+17
1.05915319e+17
1.05902779e+17
1.05824912e+17
1.05683753e+17
1.05476966e+17
1.05221408e+17
1.04919077e+17
1.04572024e+17
1.04182358e+17
1.03752238e+17
1.03283876e+17
1.02779527e+17
1.02241487e+17
1.01672087e+17
1.01073687e+17
1.00448666e+17
9.97994131e+16
9.91283217e+16
9.84377754e+16
9.77301398e+16
9.70077517e+16
9.62729085e+16
9.55278594e+16
9.47747972e+16
9.40158525e+16
9.32530909e+16
9.24885147e+16
9.17240702e+16
9.0961663e+16
9.02031818e+16
8.94505362e+16
8.87057092e+16
8.79708298e+16
8.72482705e+16
8.65407755e+16
8.58516281e+16
8.51848658e+16
8.4545555e+16
8.39401406e+16
8.33768868e+16
8.28664311e+16
8.24224764e+16
8.20626473e+16
8.18095349e+16
8.16919312e+16
8.17461823e+16
8.20173456e+16
8.25590368e+16
8.34278107e+16
8.4654607e+16
8.06109508e+15
1.16763804e+16
1.53620706e+16
1.89926323e+16
2.25617691e+16
2.6082645e+16
2.95680657e+16
3.30262522e+16
3.64606806e+16
3.98709856e+16
4.32540206e+16
4.66047987e+16
4.99172434e+16
5.31847586e+16
5.64006399e+16
5.95583621e+16
6.26517696e+16
6.56751935e+16
6.86235164e+16
7.14921981e+16
7.42772746e+16
7.69753405e+16
7.9583518e+16
8.2099421e+16
8.45211147e+16
8.68470752e+16
8.90761491e+16
9.12075157e+16
9.32406504e+16
9.51752925e+16
9.7011415e+16
9.87491977e+16
1.00389003e+17
1.01931356e+17
1.03376924e+17
1.04726502e+17
1.05980999e+17
1.07141427e+17
1.08208887e+17
1.09184568e+17
1.10069735e+17
1.10865723e+17
1.11573938e+17
1.1219585e+17
1.1273299e+17
1.13186952e+17
1.13559387e+17
1.13852007e+17
1.14066582e+17
1.14204937e+17
1.14268956e+17
1.14260577e+17
1.14181794e+17
1.14034649e+17
1.13815325e+17
1.13541786e+17
1.13216053e+17
1.12840196e+17
1.12416341e+17
1.11946663e+17
1.11433383e+17
1.10878767e+17
1.1028512e+17
1.09654777e+17
1.08990101e+17
1.08293472e+17
1.07567277e+17
1.06813901e+17
1.06035719e+17
1.0523508e+17
1.04414299e+17
1.03575645e+17
1.02721327e+17
1.01853492e+17
1.00974209e+17
1.0008547e+17
9.91891898e+16
9.82872093e+16
9.73813108e+16
9.6473242e+16
9.55647525e+16
9.4657648e+16
9.3753866e+16
9.28555785e+16
9.19653294e+16
9.10862162e+16
9.02221271e+16
8.9378048e+16
8.856046e+16
8.77778511e+16
8.7041373e+16
8.63656859e+16
8.57700397e+16
8.52796552e+16
8.49274669e+16
8.47562536e+16
8.48210018e+16
8.51906231e+16
8.5945105e+16
8.71497303e+16
8.61996779e+15
1.26482161e+16
1.66621866e+16
2.05718967e+16
2.43959412e+16
2.81615109e+16
3.18886707e+16
3.55889223e+16
3.92667484e+16
4.29215422e+16
4.65492793e+16
5.01438221e+16
5.36978825e+16
5.72037099e+16
6.0653564e+16
6.40400303e+16
6.73562161e+16
7.05958631e+16
7.37534002e+16
7.68239548e+16
7.98033363e+16
8.2688002e+16
8.54750128e+16
8.81619832e+16
9.07470292e+16
9.32287173e+16
9.56060152e+16
9.78782457e+16
1.00045044e+17
1.02106321e+17
1.04062225e+17
1.05913115e+17
1.07659531e+17
1.09302173e+17
1.10841875e+17
1.12279595e+17
1.13616397e+17
1.14853434e+17
1.15991945e+17
1.17033241e+17
1.17978703e+17
1.1882977e+17
1.19587941e+17
1.2025477e+17
1.20831862e+17
1.21320873e+17
1.2172351e+17
1.22041529e+17
1.22276736e+17
1.22430985e+17
1.2250618e+17
1.22504271e+17
1.22427258e+17
1.2227718e+17
1.22048869e+17
1.21761232e+17
1.21416299e+17
1.21016149e+17
1.20562909e+17
1.20058752e+17
1.19505895e+17
1.18906598e+17
1.18263154e+17
1.17577885e+17
1.16853138e+17
1.16091272e+17
1.1529465e+17
1.1446563e+17
1.13606552e+17
1.12719728e+17
1.11807426e+17
1.10871861e+17
1.0991518e+17
1.08939454e+17
1.07946665e+17
1.06938704e+17
1.05917366e+17
1.04884356e+17
1.03841297e+17
1.02789758e+17
1.01731285e+17
1.00667458e+17
9.95999659e+16
9.85307131e+16
9.74619633e+16
9.63965318e+16
9.53380392e+16
9.4291246e+16
9.32624903e+16
9.22602622e+16
9.12959539e+16
9.03848466e+16
8.9547408e+16
8.88110064e+16
8.82121725e+16
8.7799555e+16
8.7637615e+16
8.78105261e+16
8.84228375e+16
8.95782632e+16
9.18861489e+15
1.36235366e+16
1.79507622e+16
2.21273983e+16
2.61988345e+16
3.02057793e+16
3.41744574e+16
3.81185423e+16
4.2042588e+16
4.59450219e+16
4.98204162e+16
5.36611248e+16
5.74584232e+16
6.12032845e+16
6.48868877e+16
6.85009384e+16
7.20378553e+16
7.54908641e+16
7.88540295e+16
8.21222433e+16
8.52911879e+16
8.83572827e+16
9.1317622e+16
9.41699107e+16
9.69123986e+16
9.95438188e+16
1.02063329e+17
1.04470458e+17
1.06765056e+17
1.08947251e+17
1.11017413e+17
1.12976115e+17
1.14824106e+17
1.16562286e+17
1.18191684e+17
1.19713437e+17
1.21128776e+17
1.22439014e+17
1.23645534e+17
1.24749781e+17
1.25753253e+17
1.26657501e+17
1.27464118e+17
1.28174743e+17
1.28791055e+17
1.29314774e+17
1.29747657e+17
1.30091504e+17
1.30348154e+17
1.30519485e+17
1.30607416e+17
1.30613905e+17
1.30540951e+17
1.30390587e+17
1.301642e+17
1.29865786e+17
1.29505227e+17
1.29084606e+17
1.28606046e+17
1.28071717e+17
1.27483828e+17
1.26844623e+17
1.2615638e+17
1.254214e+17
1.24642004e+17
1.23820519e+17
1.22959273e+17
1.22060582e+17
1.21126736e+17
1.20159991e+17
1.1916255e+17
1.18136553e+17
1.17084063e+17
1.16007053e+17
1.14907394e+17
1.13786849e+17
1.12647066e+17
1.11489584e+17
1.10315838e+17
1.09127181e+17
1.0792492e+17
1.06710365e+17
1.05484906e+17
1.04250123e+17
1.0300793e+17
1.01760777e+17
1.00511914e+17
9.92657491e+16
9.802832e+16
9.68079196e+16
9.56159316e+16
9.44679458e+16
9.33852589e+16
9.23969107e+16
9.15424632e+16
9.08758048e+16
9.04702684e+16
9.04249718e+16
9.08696742e+16
9.19499211e+16
9.76564444e+15
1.4597044e+16
1.92217929e+16
2.36538106e+16
2.79662419e+16
3.22123459e+16
3.64232023e+16
4.06134731e+16
4.47868416e+16
4.89400737e+16
5.30658553e+16
5.71547207e+16
6.11963304e+16
6.5180301e+16
6.90967214e+16
7.29364574e+16
7.66913119e+16
8.03540878e+16
8.39185889e+16
8.73795797e+16
9.0732723e+16
9.39745032e+16
9.71021457e+16
1.00113536e+17
1.03007139e+17
1.05781929e+17
1.08437319e+17
1.10973103e+17
1.13389394e+17
1.15686587e+17
1.17865304e+17
1.19926368e+17
1.21870765e+17
1.23699617e+17
1.25414164e+17
1.27015738e+17
1.28505751e+17
1.29885685e+17
1.31157072e+17
1.32321495e+17
1.33380577e+17
1.34335977e+17
1.35189388e+17
1.35942531e+17
1.36597158e+17
1.37155048e+17
1.37618012e+17
1.37987886e+17
1.38266539e+17
1.38455868e+17
1.38557805e+17
1.3857431e+17
1.38507376e+17
1.38359024e+17
1.38131304e+17
1.37825381e+17
1.37452899e+17
1.37015913e+17
1.36516517e+17
1.35956839e+17
1.35339046e+17
1.34665338e+17
1.33937939e+17
1.33159102e+17
1.32331089e+17
1.31456173e+17
1.3053662e+17
1.29574684e+17
1.28572588e+17
1.27532513e+17
1.26456585e+17
1.25346855e+17
1.24205287e+17
1.23033745e+17
1.21833974e+17
1.20607597e+17
1.193561e+17
1.18080839e+17
1.1678304e+17
1.15463821e+17
1.1412422e+17
1.12765247e+17
1.11387959e+17
1.09993562e+17
1.08583567e+17
1.07159988e+17
1.05725618e+17
1.04284403e+17
1.02841941e+17
1.01406153e+17
9.99881879e+16
9.86036573e+16
9.72743223e+16
9.60304348e+16
9.49140228e+16
9.39835485e+16
9.33205097e+16
9.30384267e+16
9.32924988e+16
9.42728395e+16
1.03497113e+16
1.55644843e+16
2.04709119e+16
2.51476636e+16
2.96957908e+16
3.41797805e+16
3.86341249e+16
4.30732623e+16
4.74990872e+16
5.19060548e+16
5.62845362e+16
6.0622988e+16
6.49093245e+16
6.91317665e+16
7.32793368e+16
7.73421284e+16
8.13114217e+16
8.51797046e+16
8.89406343e+16
9.25889625e+16
9.61204429e+16
9.95317298e+16
1.02820276e+17
1.05984234e+17
1.09022365e+17
1.11933952e+17
1.14718726e+17
1.17376795e+17
1.19908587e+17
1.22314795e+17
1.24596333e+17
1.26754296e+17
1.28789929e+17
1.30704597e+17
1.32499762e+17
1.34176964e+17
1.35737806e+17
1.37183938e+17
1.38517052e+17
1.3973887e+17
1.40851138e+17
1.41855626e+17
1.42754122e+17
1.4354843e+17
1.44240372e+17
1.44831784e+17
1.45324523e+17
1.45720461e+17
1.46021493e+17
1.46229531e+17
1.46346514e+17
1.463744e+17
1.46315171e+17
1.46170833e+17
1.4594341e+17
1.45632682e+17
1.45251247e+17
1.44801138e+17
1.4428442e+17
1.43703191e+17
1.43059577e+17
1.4235573e+17
1.41593827e+17
1.40776057e+17
1.39904621e+17
1.38981718e+17
1.38009539e+17
1.36990252e+17
1.35925992e+17
1.34818843e+17
1.33670826e+17
1.32483882e+17
1.31259855e+17
1.30000472e+17
1.28707336e+17
1.27381905e+17
1.26025487e+17
1.24639233e+17
1.23224144e+17
1.21781081e+17
1.20310791e+17
1.18813962e+17
1.17291282e+17
1.15743554e+17
1.14171838e+17
1.12577655e+17
1.10963271e+17
1.09332077e+17
1.07689112e+17
1.06041768e+17
1.04400761e+17
1.02781462e+17
1.01205758e+17
9.97046786e+16
9.83221636e+16
9.71205697e+16
9.6188785e+16
9.56540179e+16
9.56967813e+16
9.65538694e+16
1.0939542e+16
1.65224873e+16
2.16950429e+16
2.66068814e+16
3.13864306e+16
3.61078106e+16
4.08073992e+16
4.54982042e+16
5.01794581e+16
5.48427154e+16
5.94756644e+16
6.40644807e+16
6.85952491e+16
7.30547935e+16
7.74311253e+16
8.17136545e+16
8.58932482e+16
8.99621983e+16
9.39141363e+16
9.77439188e+16
1.01447501e+17
1.05021811e+17
1.0846462e+17
1.11774433e+17
1.14950378e+17
1.17992113e+17
1.2089974e+17
1.23673732e+17
1.26314865e+17
1.28824169e+17
1.31202871e+17
1.33452366e+17
1.35574172e+17
1.37569909e+17
1.39441274e+17
1.41190021e+17
1.42817945e+17
1.44326875e+17
1.45718657e+17
1.46995152e+17
1.48158233e+17
1.49209774e+17
1.50151658e+17
1.50985767e+17
1.51713988e+17
1.52338214e+17
1.52860341e+17
1.53282274e+17
1.53605929e+17
1.5383323e+17
1.53966116e+17
1.54006542e+17
1.53956475e+17
1.53817898e+17
1.53592809e+17
1.53279715e+17
1.52892047e+17
1.52431806e+17
1.51901024e+17
1.51301756e+17
1.50636082e+17
1.49906103e+17
1.49113937e+17
1.48261711e+17
1.47351556e+17
1.46385597e+17
1.4536594e+17
1.44294665e+17
1.43173806e+17
1.42005343e+17
1.40791179e+17
1.39533129e+17
1.38232898e+17
1.36892065e+17
1.35512064e+17
1.34094174e+17
1.326395e+17
1.31148972e+17
1.29623341e+17
1.28063188e+17
1.26468952e+17
1.24840967e+17
1.23179532e+17
1.2148501e+17
1.19757973e+17
1.17999402e+17
1.16210974e+17
1.14395447e+17
1.12557197e+17
1.10702953e+17
1.08842819e+17
1.0699169e+17
1.0517127e+17
1.03412955e+17
1.01762067e+17
1.0028418e+17
9.9074757e+16
9.82738519e+16
9.80868652e+16
9.8798809e+16
1.1533949e+16
1.74684177e+16
2.28921127e+16
2.80304213e+16
3.30380472e+16
3.79969442e+16
4.29438078e+16
4.78890385e+16
5.2828393e+16
5.77500021e+16
6.26385659e+16
6.74778317e+16
7.22520158e+16
7.69465801e+16
8.15486062e+16
8.60469292e+16
9.04321253e+16
9.46964169e+16
9.88335336e+16
1.02838554e+17
1.06707746e+17
1.10438405e+17
1.14028714e+17
1.17477604e+17
1.20784639e+17
1.23949907e+17
1.26973932e+17
1.29857588e+17
1.32602039e+17
1.35208672e+17
1.37679054e+17
1.40014891e+17
1.4221799e+17
1.44290236e+17
1.46233564e+17
1.48049946e+17
1.49741375e+17
1.51309851e+17
1.52757379e+17
1.54085957e+17
1.55297576e+17
1.56394217e+17
1.57377848e+17
1.58250428e+17
1.59013905e+17
1.59670221e+17
1.60221311e+17
1.60669105e+17
1.61015536e+17
1.61262535e+17
1.61412042e+17
1.61465998e+17
1.61426356e+17
1.61295072e+17
1.61074113e+17
1.60760828e+17
1.60369372e+17