/*--------------------------------*- C++ -*----------------------------------*\
| =========                 |                                                 |
| \\      /  F ield         | OpenFOAM Extend Project: Open source CFD        |
|  \\    /   O peration     | Version:  1.6-ext                               |
|   \\  /    A nd           | Web:      www.extend-project.de                 |
|    \\/     M anipulation  |                                                 |
\*---------------------------------------------------------------------------*/
FoamFile
{
    version     2.0;
    format      ascii;
    class       volScalarField;
    location    "4000";
    object      promptHeatSource;
}
// * * * * * * * * * * * * * * * * * * * * * * * * * * * * * * * * * * * * * //

dimensions      [1 -1 -3 0 0 0 0];

internalField   nonuniform List<scalar> 
40000
(
1700471.91
2018227.64
2338205.64
2660427.4
2984904.04
3311638.98
3640634.96
3971885.2
4305379.71
4641104.56
4979042.17
5319171.54
5661468.44
6005905.53
6352452.5
6701076.08
7051740.18
7404405.86
7759031.39
8115572.26
8473981.16
8834208.01
9196199.9
9559901.11
9925253.06
10292194.3
10660660.5
11030584.2
11401895.2
11774520.1
12148382.4
12523402.5
12899497.8
13276582
13654566
14033357.1
14412859.1
14792972.5
15173594.2
15554617.4
15935932
16317423.6
16698974.5
17080462.8
17461762.8
17842744.8
18223275
18603215.3
18982423.5
19360753.2
19738053.2
20114168.4
20488938.8
20862194.8
21233766.8
21603483.3
21971166.9
22336633.7
22699694.2
23060153.2
23417809.4
23772455.8
24123879.7
24471862
24816177.7
25156595.7
25492878.1
25824781
26152053.6
26474438.4
26791671
27103479.7
27409586
27709703.8
28003539.3
28290791.4
28571150.8
28844300.3
29109914.7
29367660.1
29617194.5
29858166.9
30090217.6
30312977.9
30526070.1
30729107.2
30921692.9
31103421.6
31273878.5
31432639.5
31579271.7
31713333.5
31834375.4
31941940.2
32035564.6
32114779.2
32179110.4
32228080.7
32261209.7
32278013.8
2018254.88
2396534.84
2777426.16
3160947.6
3547118.42
3935945.3
4327428.8
4721563.9
5118340.4
5517743.41
5919753.59
6324347.51
6731497.8
7141173.32
7553339.29
7967957.36
8384985.72
8804379.09
9226088.78
9650062.72
10076245.4
10504578
10934998.2
11367440.2
11801834.9
12238109.5
12676187.7
13115989.7
13557432
14000427.4
14444885
14890709.9
15337803.6
15786063.6
16235383.3
16685652.2
17136755.5
17588574.4
18040985.8
18493862.1
18947071.5
19400477.7
19853939.7
20307312.1
20760444.6
21213182.1
21665365
22116828.2
22567402.1
23016911.6
23465176.9
23912012.4
24357227.6
24800621.5
25241985.9
25681116
26117800.1
26551820.4
26982952.1
27410963.6
27835616.7
28256666.2
28673860.2
29086939.3
29495637.3
29899680.4
30298787.4
30692669.7
31081030.4
31463565.3
31839961.5
32209898.1
32573045.8
32929066.3
33277612.9
33618329.4
33950850.7
34274802
34589799.1
34895447.7
35191343.7
35477072.5
35752209.3
36016318.5
36268953.8
36509658.1
36737963.1
36953389.4
37155446.8
37343634.1
37517439.2
37676339.9
37819804.6
37947292.3
38058254.3
38152135.3
38228374.2
38286405.3
38325659.4
38345563.5
2338293
2777493.29
3219692.59
3664921.14
4113192.91
4564515.79
5018891
5476313.48
5936772.46
6400251.77
6866730.27
7336182.02
7808576.55
8283879.01
8762050.31
9243047.17
9726822.25
10213324.2
10702497.5
11194282.9
11688617
12185432.3
12684657.5
13186217
13690031.3
14196016.6
14704085.1
15214144.5
15726098.5
16239846.1
16755282.2
17272297.1
17790776.3
18310600.9
18831647.2
19353786.9
19876886.4
20400807.6
20925407
21450536.3
21976041.7
22501764.4
23027540.1
23553198.9
24078565.8
24603459.7
25127694.1
25651076.6
26173409
26694487.1
27214100.7
27732033.7
28248063.5
28761958.1
29273470.2
29782360.1
30288381.1
30791279.2
31290792.9
31786653
32278583
32766298.3
33249506.7
33727907.9
34201193.4
34669046.6
35131142.3
35587146.7
36036717.3
36479502.5
36915141.6
37343264.5
37763491.5
38175433.2
38578690.1
38972852.4
39357500
39732201.8
40096516.2
40449989.9
40792158.6
41122545.9
41440663.8
41746012
42038077.8
42316335.9
42580248.2
42829263.8
43062818.8
43280336.6
43481227.8
43664890.7
43830711.9
43978067.2
44106322.5
44214835.1
44302955.4
44370027.8
44415392.4
44438384.2
2660612.77
3161126.29
3665039.77
4172377.83
4683154.53
5197377.23
5715046.52
6236156.54
6760695.34
7288645.18
7819982.81
8354679.71
8892702.32
9434012.15
9978565.89
10526315.5
11077208.5
11631187.4
12188190.6
12748151.5
13310999.2
13876658.2
14445048.1
15016084.2
15589676.7
16165731.4
16744149
17324825.3
17907651.4
18492513
19079290.9
19667860.7
20258092.6
20849851.4
21442996.6
22037381.9
22632855.4
23229259.7
23826431.2
24424200.6
25022392.4
25620825
26219310.6
26817655.1
27415657.9
28013111.9
28609803.4
29205511.9
29800010.4
30393064.7
30984433.8
31573869.7
32161117.2
32745913.3
33327968.6
33907008
34482748.6
35054899
35623159.8
36187223.1
36746772.5
37301482.8
37851020.4
38395042.5
38933197.6
39465124.6
39990453.4
40508804.4
41019788
41523004.9
42018045.8
42504490.9
42981910.1
43449862.4
43907895.8
44355547.2
44792341.9
45217793.6
45631403.8
46032661.9
46421044.5
46796015.4
47157025.4
47503511.6
47834897.3
48150591.8
48449990
48732472.2
48997403.9
49244135.8
49472003.7
49680329
49868418.6
50035566.1
50181052.7
50304148.4
50404113.8
50480201.5
50531658.1
50557723.4
2985230.23
3547457.26
4113484.69
4683333.83
5257016.99
5834539.8
6415901.26
7001093.93
7590104.04
8182911.87
8779491.81
9379812.68
9983837.77
10591525
11202827.1
11817691.5
12436060.5
13057871.3
13683055.9
14311541.3
14943249.1
15578096
16215993.4
16856847.3
17500558.4
18147022.1
18796128.2
19447761.1
20101799.3
20758115.9
21416578
22077046.5
22739376.8
23403417.8
24069012.3
24735996.6
25404200.7
26073447.9
26743554.8
27414331.3
28085580.4
28757097.8
29428672.3
30100085.3
30771111
31441515.9
32111058.9
32779491.5
33446557.2
34111991.5
34775522.2
35436868.8
36095743
36751851.3
37404859.1
38054455.1
38700319
39342121.3
39979523.4
40612177.4
41239725.7
41861801.4
42478028
43088019
43691377.9
44287698.6
44876564.2
45457547.7
46030211.7
46594107.8
47148776.7
47693748.2
48228540.5
48752660.5
49265603.1
49766851.4
50255876.1
50732135.3
51195074.4
51644125.7
52078707.9
52498226.1
52902071.3
53289619.9
53660233.5
54013258.5
54348025.8
54663849.8
54960029.1
55235845.2
55490562.9
55723429.7
55933676.4
56120517.5
56283151.3
56420761.8
56532519.8
56617584.7
56675106.7
56704227
3312154.08
3936496.54
4565037.26
5197796.44
5834783.61
6476001.77
7121447.51
7771111.03
8424976.3
9083021.21
9745217.64
10411531.6
11081923.4
11756347.4
12434752.6
13117081.9
13803273.1
14493258
15186962.8
15884308.1
16585208.8
17289573.9
17997306.8
18708304.8
19422459.4
20139656.1
20859774.1
21582686.4
22308260
23036355.2
23766825.6
24499518.6
25234274.5
25970926.7
26709301.8
27449219
28190490.4
28932920.5
29676306.3
30420437.2
31165094.7
31910052.3
32655075.5
33399921.3
34144338.7
34888067.9
35630840.6
36372379.9
37112399.9
37850605.6
38586693.2
39320349.7
40051252.8
40779075.4
41503444.3
42224006.3
42940402.9
43652265.6
44359215.6
45060863.8
45756810.4
46446645.5
47129948.2
47806287.1
48475219.5
49136292.3
49789040.7
50432989.1
51067650.1
51692524.9
52307103.2
52910862.5
53503268.2
54083773.8
54651820.1
55206835.1
55748234.2
56275419.5
56787779.7
57284689.8
57765510.9
58229589.8
58676258.4
59104833.9
59514617.7
59904895.4
60274936
60623991.7
60951296.9
61256068
61537502.7
61794779.2
62027056.7
62233474
62413151
62565188
62688668.1
62782657.4
62846208.1
62878358.7
3641391.59
4328248.21
5019699.94
5715764.6
6416448.3
7121750.78
7831665.56
8546180.06
9265275.61
9988927.52
10717105.1
11449771.6
12186884.3
12928394.4
13674247.1
14424381.5
15178730.6
15937221.5
16699774.7
17466304.8
18236720.2
19010922.7
19788807.9
20570264.9
21355176.1
22143417.5
22934858.1
23729360.1
24526778.7
25326962.2
26129751.3
26934979.5
27742472.9
28552049.8
29363520.7
30176688.1
30991346.5
31807282.1
32624272.6
33442087
34260485.8
35079220.4
35898033.3
36716657.4
37534816.7
38352225.2
39168587.6
39983598.5
40796942.6
41608294.6
42417318.9
43223669.8
44026990.8
44826915.5
45623044.3
46414974.2
47202307.8
47984636.8
48761541.4
49532590.3
50297340.8
51055338.5
51806117.2
52549199.1
53284094.3
54010301
54727305.3
55434581
56131589.8
56817780.8
57492590.5
58155443.1
58805749.5
59442908.1
60066304.1
60675309.3
61269282.3
61847568
62409497.5
62954387.9
63481541.8
63990247.7
64479778.5
64949392.5
65398331.8
65825822.5
66231073.8
66613277.5
66971607.3
67305217.7
67613243.3
67894797.9
68148973.4
68374838.9
68571440.1
68737798.9
68872913.7
68975759.6
69045290.6
69080439.5
3972940.62
4722710.45
5477468.41
6237229.73
7001996.73
7771765.48
8546526.16
9326263.22
10110955.3
10900575
11695089.3
12494458.7
13298637.7
14107574.5
14921210.8
15739482
16562316.8
17389637.4
18221359.4
19057391.4
19897635.4
20741986.6
21590332.8
22442555.2
23298527.6
24158116.5
25021181.1
25887573.1
26757136.4
27629707.3
28505114
29383176.7
30263707.4
31146509.5
32031378
32918099
33806449.8
34696198.4
35587103.6
36478914.6
37371371
38264202.6
39157128.8
40049859.2
40942092.6
41833517.4
42723811
43612640.2
44499660.3
45384515.6
46266838.8
47146251.4
48022362.9
48894771.3
49763043.7
50626729.5
51485392.3
52338583
53185840.4
54026690.4
54860646.1
55687208.1
56505863.9
57316088.1
58117342.3
58909075
59690721.7
60461704.3
61221431.9
61969299.8
62704690.4
63426972.1
64135500.2
64829616.2
65508647.9
66171909.4
66818700.7
67448308.2
68060004
68653045.7
69226676.9
69780126.3
70312607.8
70823320
71311446.1
71776153
72216591.3
72631894
73021176
73383533
73718040.2
74023751.1
74299695.4
74544878
74758276.6
74938840.3
75085488.4
75197109.1
75272560.2
75310667.7
4306795.42
5119875.99
5938332.23
6762176.59
7591407.48
8426017.22
9265992.76
10111315.7
10961962
11817902.1
12679100.6
13545515.5
14417098.9
15293796
16175545.4
17062278.9
17953921.1
18850389.6
19751595
20657440.4
21567821.5
22482626.8
23401737
24325025.3
25252357
26183589.6
27118572.7
28057147.5
28999147.1
29944396.1
30892710.4
31843897.2
32797754.7
33754071.8
34712628.3
35673194.3
36635530.1
37599386.1
38564502.3
39530608.6
40497424
41464656.9
42432004.4
43399152.5
44365775.5
45331536.3
46296085.5
47259061.9
48220092
49178789.7
50134756.2
51087580.1
52036837
52982089.3
53922872.8
54858687.2
55789056.4
56713490.8
57631486.9
58542527.2
59446080.4
60341601.1
61228529.5
62106292
62974300.7
63831953.1
64678632.8
65513708.9
66336536.3
67146455.2
67942792
68724858.4
69491951.7
70243355.1
70978337.4
71696153
72396042
73077230.1
73738928.8
74380335
75000631.2
75598985.6
76174551.4
76726467
77253855.8
77755825.5
78231468.1
78679858.5
79100054.4
79491094.7
79851997.9
80181760.8
80479356
80743729.4
80973797
81168442.1
81326512
81446813.9
81528113.9
81569132.1
4642945.98
5519732.58
6402275.37
7290584.04
8184653.13
9084471.57
9990023.44
10901287.9
11818238.8
12740844.6
13669067.9
14602864.7
15542184.6
16486970.3
17437157.3
18392673.9
19353440.8
20319371.3
21290370.8
22266337
23247159.7
24232720.5
25222893.2
26217543.2
27216527.5
28219694.7
29226884.8
30237929.1
31252649.8
32270860.2
33292364.1
34316956
35344420.7
36374533
37407057.6
38441749
39478350.9
40516596.4
41556207.3
42596894.2
43638356.2
44680280.5
45722342.3
46764204.2
47805516.6
48845916.9
49885029.5
50922465.5
51957822.5
52990684.4
54020621.1
55047188.6
56069928.4
57088367.7
58102012.3
59110311
60112747.8
61108792
62097897.8
63079503.9
64053033.8
65017895.8
65973482.3
66919170.6
67854322.2
68778283.2
69690384.1
70589939.9
71476250.1
72348598.8
73206254.7
74048471.3
74874486.6
75683523.8
76474790.9
77247480.8
78000771.9
78733827.5
79445796.8
80135813.9
80802998.9
81446457.3
82065280.3
82658544.9
83225313.3
83764633.3
84275537.4
84757042.8
85208150.2
85627842.6
86015084.3
86368818.1
86687963.3
86971412
87218025.1
87426627.1
87596001.1
87724881.6
87811949.4
87855822.5
4981378.26
5922263.27
6869276.71
7822425.62
8781701.1
9747089.32
10718572.2
11696127.1
12679726.5
13669337.3
14664920.4
15666430.2
16673814.2
17687012.6
18705958
19730575.1
20760781
21796484.3
22837585.5
23883976.9
24935542.1
25992156.5
27053686.4
28119989.7
29190915.2
30266302.8
31345983
32429777.3
33517497.4
34608945.3
35703913.1
36802182.9
37903526.3
39007704.3
40114467.1
41223553.6
42334691.6
43447597
44561973.9
45677514.1
46793897
47910789.1
49027843.8
50144701.2
51260987.7
52376315.9
53490284
54602475.8
55712460.4
56819791.9
57924009.1
59024635.6
60121179.1
61213131.6
62299970.8
63381092.7
64455941.8
65523945.9
66584516.6
67637048.8
68680920.5
69715492.9
70740110.5
71754100.6
72756773.8
73747423.6
74725326.9
75689743.4
76639916.4
77575072.5
78494421.7
79397157.7
80282458
81149484.1
81997381.6
82825280.4
83632295.3
84417525.6
85180055.9
85918956.1
86633281.7
87322073.8
87984360
88619153.5
89225454.4
89802248.7
90348508.9
90863193
91345244.7
91793591.7
92207144.5
92584794.3
92925410.1
93227834.5
93490879
93713316.8
93893875.4
94031225.8
94123972.4
94170637.5
5322074.47
6327446.74
7339310.36
8357670.04
9382514.2
10413827.2
11451589.7
12495778.2
13546364.4
14603314.4
15666588
16736138
17811910.1
18893842
19981863.4
21075895.7
22175851.9
23281636
24393143.7
25510261.6
26632867.3
27760829.4
28894007.2
30032251.1
31175401.6
32323289.9
33475737.4
34632555.8
35793546.4
36958500.4
38127198.3
39299410
40474894.4
41653398.9
42834659.4
44018400.1
45204332.7
46392156.7
47581558.6
48772212
49963776.9
51155899.5
52348212
53540332.2
54731863
55922392.4
57111493
58298721.4
59483618.7
60665709.4
61844501.7
63019486.6
64190138.6
65355914.4
66516265.5
67670533.7
68818123.5
69958421.8
71090797.3
72214600.7
73329164.5
74433802.6
75527810.7
76610466.2
77681027.9
78738736.3
79782813.7
80812464.1
81826873.5
82825209.9
83806623.6
84770247.4
85715196.9
86640570.4
87545449.8
88428900.5
89289971.8
90127697.4
90941095.6
91729169.9
92490909.4
93225289.1
93931270.6
94607801.9
95253818.7
95868243.6
96449987.2
96997947.6
97511009.9
97988046.1
98427913.2
98829451.8
99191482.5
99512802.2
99792177.9
100028338
100219964
100365673
100464003
100513390
5665013.24
6735257.56
7812345.96
8896281.55
9987051.05
11084638.2
12189023.5
13300183.8
14418090.7
15542710.1
16674000.9
17811915
18956396.1
20107379.5
21264791.9
22428551.3
23598566.4
24774736.7
25956952.5
27145094.7
28339034.8
29538634.7
30743746.7
31954213.1
33169866.7
34390529.9
35616015.1
36846124.3
38080648.7
39319368.8
40562054
41808462.3
43058339.8
44311421.1
45567428.1
46826070.3
48087044.3
49350033.1
50614706.5
51880719.9
53147714.5
54415316.8
55683138.1
56950774.1
58217804.9
59483794.2
60748289.2
62010820.1
63270900
64528024.3
65781670.6
67031298
68276347.7
69516241.5
70750406.3
71978128.3
73198772.3
74411683.8
75616188.9
76811594
77997185.7
79172230.5
80335975.3
81487646.8
82626451.8
83751577.3
84862190.4
85957438.5
87036449.6
88098332.4
89142176.5
90167052.7
91172013.3
92156092.8
93118307.6
94057657
94973123.5
95863673.4
96728257.1
97565810
98375252.8
99155492.4
99905422.3
100623923
101309865
101962104
102579487
103160851
103705021
104210812
104677026
105102454
105485869
105826025
106121648
106371428
106574009
106727964
106831779
106883814
6010169.77
7145666.32
8288348.96
9438220.13
10595266.2
11759471.7
12930818.5
14109284.3
15294841.8
16487457.1
17687088.9
18893687.9
20107196.1
21327546.3
22554662.1
23788457.6
25028837.2
26275695.4
27528917.2
28788377.6
30053941.6
31325464.2
32602790.6
33885755.5
35174183.4
36467888.3
37766673.7
39070332
40378644.6
41691381.6
43008301.2
44329149.9
45653662
46981558.9
48312549.3
49646328.4
50982577.8
52320965
53661142.9
55002749.7
56345408.1
57688725.2
59032291.8
60375682.4
61718454.2
63060147.4
64400284.1
65738368.4
67073885.8
68406302.9
69735067.1
71059606
72379327.5
73693619.1
75001884.7
76303353.1
77597349.6
78883178.8
80160123.8
81427446.8
82684388.3
83930167.5
85163981.8
86385007.3
87592398.3
88785287.8
89962787.2
91123986.9
92267956.2
93393743.5
94500377.1
95586864.7
96652194.7
97695335.9
98715238.5
99710834.3
100681038
101624746
102540840
103428185
104285632
105112017
105906165
106666886
107392982
108083241
108736445
109351367
109926768
110461406
110954029
111403374
111808168
112167123
112478928
112742240
112955670
113117763
113226961
113281565
6357516
7558639.86
8767280.71
9983441.71
11207110.5
12438273.8
13676916
14923017.2
16176551.7
17437486.4
18705780
19981382
21264232.7
22554262.1
23851390.5
25155527.8
26466573.7
27784417.7
29108938.8
30440005.8
31777477.3
33121201.4
34471015.8
35826747.6
37188213.2
38555218.2
39927557.1
41305013.2
42687358.2
44074351.9
45465742
46861263.9
48260639.8
49663579
51069776.9
52478915.3
53890661
55304666.5
56720568.4
58137987.9
59556529.9
60975782.5
62395316.6
63814685.7
65233424.9
66651051
68067061.7
69480935.2
70892130
72300084.2
73704215.2
75103919.6
76498572.2
77887526.5
79270165.4
80645658.2
82013291.4
83372328.3
84722009.5
86061552.7
87390152.5
88706980.3
90011184.3
91301889.3
92578197.1
93839186.1
95083911.9
96311407
97520681.5
98710723.2
99880497.8
101028950
102155002
103257556
104335497
105387686
106412968
107410171
108378104
109315560
110221320
111094148
111932794
112736001
113502496
114231001
114920228
115568882
116175664
116739268
117258385
117731700
118157892
118535632
118863573
119140343
119364530
119534655
119649136
119706225
6707020.68
7974141.33
9249098.66
10531898.2
11822530.5
13120986.4
14427254.1
15741317
17063151.7
18392726.3
19729999.4
21074919.7
22427425.2
23787443
25154889.6
26529670.3
27911679.9
29300802.2
30696910.1
32099866.2
33509522.2
34925719
36348286.9
37777045.3
39211802.7
40652356.3
42098491.8
43549983.6
45006593.9
46468072.7
47934157.4
49404572.4
50879028.7
52357223.6
53838840
55323546.2
56810995.3
58300824.7
59792655.7
61286092.8
62780723.5
64276117.6
65771826.4
67267383
68762300.8
70256073.8
71748175.6
73238059.1
74725156
76208876.4
77688608.3
79163717
80633545.1
82097412.1
83554619.4
85004401.6
86445943.2
87878466.5
89301169.4
90713225
92113781.9
93501963.5
94876868.4
96237570.2
97583117.5
98912534
100224819
101518946
102793867
104048507
105281769
106492532
107679655
108841972
109978298
111087425
112168129
113219163
114239266
115227159
116181546
117101119
117984556
118830524
119637679
120404669
121130138
121812721
122451052
123043762
123589483
124086845
124534478
124931010
125275060
125565231
125800093
125978153
126097816
126157306
7058649.49
8392130.37
9733756.39
11083537.5
12441469.2
13807547.9
15181767.1
16564114.5
17954569.3
19353101.1
20759668.6
22174219.1
23596688.2
25026999.7
26465065.7
27910786.7
29364051.8
30824738.9
32292714.7
33767834.8
35249944
36738876.1
38234453.8
39736488.8
41244781.7
42759121.4
44279285.3
45805038.8
47336135.1
48872314.7
50413304.9
51958819.8
53508559.5
55062209.7
56619441.3
58179909.8
59743254.7
61309099.1
62877049.4
64446694
66017603.5
67589329.8
69161405.4
70733343.2
72304635.6
73874754.2
75443148.8
77009247.7
78572456.1
80132156.6
81687707.9
83238444.8
84783677.9
86322692.6
87854749.3
89379068.2
90894771.2
92401039.8
93897029.3
95381868.7
96854660.4
98314480.2
99760377.1
101191373
102606464
104004619
105384779
106745860
108086754
109406323
110703407
111976821
113225355
114447777
115642829
116809237
117945700
119050903
120123508
121162162
122165495
123132122
124060647
124949661
125797746
126603475
127365419
128082142
128752208
129374185
129946640
130468147
130937286
131352639
131712793
132016324
132261791
132447696
132572445
132634250
7412365.09
8812563.1
10221203.7
11638303.5
13063865.3
14497892.5
15940385.3
17391336.2
18850727.6
20318530.7
21794704
23279193
24771930.4
26272836.3
27781817.8
29298770
30823576.1
32356107.5
33896224.1
35443774.7
36998596.8
38560516.9
40129350.2
41704900.9
43286961.4
44875312.9
46469724.5
48069953
49675742.8
51286825.3
52902918.3
54523725.8
56148937.6
57778228.3
59411257.2
61047667.4
62687085.6
64329121.2
65973365.8
67619392.5
69266755.6
70914989.5
72563608.4
74212105.6
75859953
77506600.1
79151473.8
80793977.8
82433491.7
84069370.6
85700944.6
87327518.4
88948370.5
90562753
92169891.1
93768981.2
95359087.2
96939349.5
98508881.1
100066767
101612062
103143796
104660968
106162547
107647477
109114670
110563013
111991361
113398545
114783366
116144599
117480993
118791270
120074130
121328247
122552270
123744830
124904534
126029971
127119712
128172310
129186304
130160220
131092571
131981863
132826594
133625257
134376345
135078351
135729771
136329109
136874879
137365607
137799830
138176100
138492969
138748985
138942656
139072398
139136432
7768127.18
9235392.22
10711386.6
12196136.4
13689653.3
15191950.1
16703034.3
18222903.9
19751544.9
21288929.6
22835016
24389747.5
25953053.3
27524848.8
29105035.8
30693503.5
32290128.5
33894775.3
35507297
37127534.9
38755319.4
40390469.4
42032792.8
43682086.1
45338134.1
47000710.2
48669575.5
50344478.6
52025155.6
53711329
55402707.7
57098986
58799843.8
60504945.3
62213938.4
63926454.8
65642108.6
67360495.9
69081194.5
70803762.5
72527738.3
74252639.5
75977962.5
77703181.7
79427748.6
81151091.5
82872614.8
84591698.1
86307695.5
88019935.5
89727719.9
91430323.5
93126993.4
94816948.4
96499379.1
98173460
99838195.3
101492685
103135999
104767179
106385234
107989145
109577861
111150301
112705354
114241877
115758699
117254617
118728400
120178786
121604486
123004182
124376530
125720157
127033667
128315638
129564625
130779161
131957758
133098911
134201094
135262768
136282380
137258364
138189148
139073151
139908789
140694478
141428636
142109691
142736077
143306245
143818665
144271827
144664243
144994443
145260967
145462333
145596982
145663159
8125892.57
9660567.06
11204247.5
12756971.9
14318763.8
15889646.1
17469635
19058734.5
20656933.8
22264206.2
23880508.5
25505781.4
27139950
28782924.1
30434599.9
32094859.6
33763572.9
35440597.2
37125778
38818949.5
40519934.5
42228544.6
43944580.1
45667830.2
47398072.3
49135072.2
50878583.3
52628346.5
54384089.9
56145527.6
57912359.9
59684272.3
61460935
63242002.1
65027111.3
66815882.8
68607919
70402803.2
72200099.8
73999352.5
75800084.4
77601797
79403969.1
81206056.8
83007492
84807682.2
86606009.6
88401830.1
90194473.3
91983241.2
93767407.7
95546218.2
97318888.8
99084605.6
100842524
102591800
104331376
106060311
107777634
109482341
111173397
112849733
114510250
116153815
117779262
119385394
120970981
122534761
124075442
125591698
127082175
128545488
129980224
131384941
132758169
134098413
135404154
136673849
137905932
139098819
140250906
141360574
142426189
143446105
144418669
145342220
146215094
147035629
147802167
148513060
149166673
149761390
150295621
150767805
151176416
151519957
151796963
152005964
152145438
152213675
8485615.11
10088033.6
11699724.8
13320742.1
14951122.5
16590901.1
18240103.3
19898739
21566800.7
23244262
24931078
26627185.6
28332504.7
30046939.5
31770379.1
33502698.6
35243760.3
36993413.8
38751497.2
40517837
42292248.6
44074536.1
45864492.7
47661900.3
49466529.1
51278137.6
53096472.2
54921266.3
56752240.3
58589100.7
60431539.6
62279233.9
64131844.9
65989017.4
67850378.9
69715539
71584088.6
73455599.3
75329622.1
77205687.3
79083303.1
80961955.1
82841105.6
84720192.6
86598628.9
88475801.7
90351071.4
92223771.3
94093206.4
95958652.7
97819356.9
99674535.4
101523373
103365025
105198612
107023271
108837882
110641466
112433008
114211461
115975743
117724740
119457300
121172240
122868339
124544346
126198972
127830895
129438761
131021181
132576735
134103971
135601406
137067526
138500790
139899628
141262445
142587621
143873512
145118454
146320763
147478738
148590664
149654813
150669448
151632827
152543205
153398838
154197990
154938935
155619965
156239394
156795570
157286878
157711747
158068655
158356129
158572718
158716943
158787158
8847245.81
10517734.3
12197753.3
13887374.5
15586650.9
17295630.9
19014349.5
20742822.9
22481045.9
24228991.8
25986612.9
27753841.7
29530592.2
31316761.4
33112231.1
34916868.7
36730528.3
38553051.8
40384269.4
42223999.8
44072051.1
45928220.1
47792292.9
49664044.4
51543238
53429625.5
55322946.2
57222926.9
59129280.7
61041706.8
62959889.7
64883498.4
66812185.8
68745587.6
70683322.1
72624988.7
74570167.5
76518418.4
78469280.3
80422269.9
82376881.4
84332585.3
86288827.4
88245028.4
90200582.6
92154857.2
94107191.7
96056896.8
98003253.5
99945512.5
101882894
103814585
105739741
107657484
109566902
111467115
113356942
115235361
117101316
118953718
120791439
122613315
124418146
126204696
127971693
129717827
131441752
133142087
134817414
136466281
138087202
139678656
141239091
142766921
144260531
145718277
147138486
148519460
149859477
151156791
152409637
153616231
154774775
155883457
156940457
157943948
158892101
159783091
160615098
161386318
162094965
162739282
163317550
163828095
164269301
164639617
164937559
165161698
165310609
165382723
9210732.76
10949608.4
12698263.9
14456792.7
16225265.8
18003746.1
19792278.6
21590885.1
23399562.3
25218282.2
27046993.4
28885622.4
30734076.6
32592245.1
34460001.6
36337204.9
38223700.8
40119323.1
42023893.8
43937224.1
45859114.5
47789355
49727724.7
51673991.9
53627913.6
55589235.2
57557689.6
59532997.1
61514864.3
63502983.7
65497032.6
67496672.7
69501548.9
71511288.7
73525501.4
75543776.8
77565684.8
79590774.2
81618572.2
83648582.7
85680286.1
87713138.4
89746569.6
91779983.4
93812756.2
95844235.8
97873741.1
99900560.8
101923952
103943142
105957323
107965654
109967262
111961236
113946632
115922556
117887760
119841184
121781732
123708269
125619623
127514581
129391896
131250279
133088402
134904902
136698373
138467374
140210425
141926011
143612576
145268534
146892259
148482096
150036354
151553313
153031224
154468309
155862764
157212763
158516458
159771981
160977449
162130965
163230623
164274511
165260714
166187322
167052431
167854155
168590628
169260019
169860536
170390446
170848081
171231857
171540281
171771944
171925481
171999419
9576021.12
11383591.6
13201183.6
15028915.8
16866879.2
18715152.1
20573789.4
22442818.1
24322235.9
26212012.1
28112090.3
30022390.4
31942811.6
33873234.4
35813523.5
37763528.8
39723087.4
41692024.4
43670154
45657279.6
47653194.5
49657681.8
51670514.3
53691453.9
55720251.7
57756647
59800367
61851126.2
63908624.9
65972549.6
68042571
70118343.9
72199506
74285676.8
76376457.3
78471428.4
80570150.2
82672161
84776976.5
86884088.6
88992964.6
91103046.1
93213748
95324457.6
97434533.6
99543305.3
101650071
103754099
105854622
107950843
110041929
112127012
114205188
116275517
118337020
120388791
122429518
124458102
126473403
128474245
130459410
132427639
134377633
136308053
138217517
140104605
141967855
143805763
145616789
147399350
149151826
150872560
152559857
154211987
155827185
157403655
158939568
160433067
161882268
163285260
164640111
165944868
167197563
168396213
169538822
170623393
171647922
172610413
173508875
174341338
175105853
175800511
176423446
176972858
177447026
177844329
178163260
178402433
178560545
178636235
9943053.13
11819616.3
13706435.6
15603658.6
17511398.1
19429748.5
21358774.7
23298507.7
25248944.8
27210051.8
29181765.6
31163998.3
33156639.7
35159561.1
37172617.2
39195648.6
41228483.2
43270937.6
45322817.7
47383919.6
49454029.5
51532924.1
53620369.9
55716123.2
57819929.4
59931522.6
62050624.7
64176944.5
66310177.4
68450003.8
70596088.6
72748080.2
74905609.6
77068289.2
79235711.9
81407450.1
83583054.8
85762054.3
87943953.6
90128232.6
92314346.2
94501722.1
96689760.5
98877832.9
101065281
103251415
105435515
107616827
109794563
111967899
114135980
116297908
118452752
120599540
122737263
124865002
126981380
129085257
131175456
133250755
135309892
137351561
139374414
141377059
143358063
145315947
147249191
149156233
151035468
152885248
154703887
156489658
158240794
159955492
161631912
163268180
164862388
166412598
167916842
169373128
170779437
172133732
173433954
174678032
175863885
176989424
178052556
179051196
179983266
180846706
181639485
182359608
183005137
183574198
184065015
184475922
184805398
185052076
185214720
185292094
10311768
12257611.1
14213939
16180931.3
18158724.6
20147429.8
22147120.9
24157832.3
26179559.4
28212262.8
30255871.4
32310287.9
34375392.1
36451044.6
38537089.8
40633358.4
42739668.8
44855828.9
46981636.7
49116881
51261341.3
53414788
55576982.1
57747674.6
59926605.9
62113505.4
64308090
66510064.1
68719117.9
70934926.8
73157150.4
75385431.2
77619394.1
79858644.7
82102768.6
84351330.2
86603871.8
88859912.2
91118945.8
93380441.8
95643842.4
97908562.3
100173987
102439474
104704347
106967898
109229390
111488045
113743056
115993576
118238722
120477572
122709166
124932501
127146537
129350348
131542485
133721774
135886995
138036886
140170138
142285399
144381272
146456314
148509037
150537907
152541347
154517732
156465394
158382623
160267662
162118716
163933946
165711475
167449386
169145728
170798513
172405720
173965300
175475173
176933236
178337363
179685407
180975208
182204593
183371383
184473395
185508450
186474382
187369042
188190309
188936105
189604409
190193276
190700865
191125465
191465534
191719721
191886862
191965858
10682102
12697501.4
14723608.8
16760639.4
18808755.4
20868084
22938707.9
25020663.2
27113942
29218497.6
31334249.9
33461090.7
35598888.2
37747491.9
39906735.1
42076438.1
44256409.8
46446449.4
48646347
50855884.3
53074834.5
55302962.5
57540023.9
59785765.3
62039922.5
64302220.6
66572372.6
68850078.6
71135024.5
73426881.2
75725303.5
78029928.7
80340375.9
82656244.6
84977113.5
87302539.6
89632056.7
91965174.9
94301378.5
96640125.9
98980847.6
101322946
103665792
106008728
108351062
110692069
113030992
115367036
117699368
120027122
122349388
124665219
126973626
129273578
131564003
133843814
136111806
138366611
140606969
142831576
145039078
147228077
149397124
151544727
153669344
155769384
157843210
159889140
161905441
163890336
165842003
167758576
169638144
171478756
173278418
175035099
176746732
178411215
180026411
181590157
183100262
184554510
185950665
187286476
188559679
189768000
190909165
191980903
192980954
193907076
194757059
195528737
196220005
196828840
197353333
197791724
198142442
198404153
198575765
198656322
11053988.2
13139208.7
15235355.8
17342683.9
19461381.9
21591593.6
23733408.8
25886864
28051946.1
30228599.6
32416733.3
34616226.6
36826935.6
39048697.2
41281333.4
43524653.6
45778457.2
48042534.6
50316668.4
52600633.5
54894197.3
57197119.5
59509151.3
61830034.9
64159502.7
66497275.9
68843064.2
71196563.9
73557457.4
75925411.7
78300077.2
80681086.6
83068053.8
85460572.5
87858215.1
90260531.5
92667047.9
95077265.5
97490659.4
99906677.5
102324739
104744234
107164520