/*--------------------------------*- C++ -*----------------------------------*\
| =========                 |                                                 |
| \\      /  F ield         | OpenFOAM Extend Project: Open source CFD        |
|  \\    /   O peration     | Version:  1.6-ext                               |
|   \\  /    A nd           | Web:      www.extend-project.de                 |
|    \\/     M anipulation  |                                                 |
\*---------------------------------------------------------------------------*/
FoamFile
{
    version     2.0;
    format      ascii;
    class       volScalarField;
    location    "4000";
    object      rhok;
}
// * * * * * * * * * * * * * * * * * * * * * * * * * * * * * * * * * * * * * //

dimensions      [0 0 0 0 0 0 0];

internalField   nonuniform List<scalar> 
40000
(
0.999657963
0.999594779
0.999530522
0.999465771
0.999400443
0.999334234
0.999268276
0.999202175
0.999135933
0.99906955
0.999003018
0.998936328
0.998869468
0.998802426
0.99873519
0.998667748
0.998600088
0.998532198
0.998464069
0.998395691
0.998327056
0.998258154
0.998188979
0.998119525
0.998049787
0.997979759
0.997909438
0.997838823
0.99776791
0.9976967
0.997625192
0.99755339
0.997481296
0.997408914
0.997336249
0.997263309
0.997190101
0.997116637
0.997042926
0.996968982
0.996894819
0.996820454
0.996745904
0.996671189
0.99659633
0.99652135
0.996446274
0.996371128
0.99629594
0.996220741
0.996145561
0.996070434
0.995995394
0.995920226
0.995844921
0.995769646
0.995694513
0.99561961
0.995545005
0.995470762
0.995396937
0.995323586
0.995250764
0.995178527
0.99510693
0.995036031
0.994965887
0.994896559
0.994828104
0.994760586
0.994694067
0.994628609
0.994564278
0.994501138
0.994439258
0.994378705
0.994319548
0.994261858
0.994205706
0.994151165
0.994098311
0.994047219
0.993997968
0.993950638
0.99390531
0.99386207
0.993821003
0.993782198
0.993745748
0.993711747
0.993680293
0.993651485
0.993625426
0.993602223
0.993581982
0.993564815
0.993550831
0.993540142
0.99353286
0.993529096
0.999595241
0.999520449
0.999444087
0.999365513
0.999286973
0.999208494
0.99913014
0.999051989
0.998974081
0.998896427
0.99881902
0.998741846
0.998664878
0.998588092
0.998511458
0.998434946
0.998358526
0.998282168
0.998205843
0.998129522
0.998053177
0.997976779
0.997900301
0.997823717
0.997747
0.997670123
0.997593063
0.997515795
0.997438293
0.997360535
0.997282499
0.997204161
0.997125502
0.997046501
0.99696714
0.996887401
0.996807268
0.996726728
0.996645767
0.996564376
0.996482546
0.996400272
0.99631755
0.99623438
0.996150766
0.996066712
0.995982229
0.995897328
0.995812026
0.995726344
0.995640304
0.995553937
0.995467273
0.995380144
0.995292302
0.995203895
0.995115054
0.995025897
0.994936535
0.994847075
0.994757615
0.994668254
0.994579087
0.994490209
0.994401716
0.994313701
0.994226261
0.994139493
0.994053495
0.993968366
0.993884206
0.993801119
0.993719208
0.993638577
0.993559333
0.993481585
0.993405441
0.993331012
0.993258409
0.993187747
0.99311914
0.993052704
0.992988558
0.992926821
0.992867616
0.992811067
0.992757301
0.992706446
0.992658633
0.992613996
0.992572672
0.992534798
0.992500513
0.992469959
0.992443277
0.992420607
0.992402091
0.992387868
0.992378075
0.992372846
0.999531612
0.999445006
0.999354154
0.999262823
0.999171067
0.999079267
0.998987679
0.998896458
0.998805698
0.998715446
0.998625722
0.998536527
0.998447851
0.998359677
0.99827198
0.998184735
0.998097914
0.998011486
0.997925421
0.997839686
0.997754248
0.997669075
0.997584131
0.997499382
0.997414792
0.997330325
0.997245943
0.997161609
0.997077283
0.996992926
0.996908498
0.996823958
0.996739266
0.996654379
0.996569258
0.99648386
0.996398145
0.996312073
0.996225603
0.996138698
0.99605132
0.995963435
0.995875009
0.995786011
0.995696414
0.995606192
0.995515324
0.995423794
0.995331587
0.995238696
0.995145117
0.995050853
0.994955912
0.994860192
0.994763268
0.994665253
0.994566255
0.994466383
0.994365741
0.994264437
0.994162578
0.994060272
0.993957631
0.99385477
0.993751805
0.993648858
0.993546053
0.993443519
0.993341389
0.993239801
0.993138895
0.993038818
0.992939719
0.992841751
0.992745074
0.992649849
0.992556241
0.992464421
0.992374561
0.992286837
0.992201429
0.99211852
0.992038296
0.991960944
0.991886655
0.991815622
0.991748037
0.991684096
0.991623992
0.991567918
0.991516061
0.991468607
0.991425733
0.991387608
0.991354389
0.991326222
0.991303243
0.991285572
0.991273327
0.991266613
0.999467192
0.999366769
0.999263153
0.999158393
0.999053008
0.998947442
0.998842014
0.998736942
0.998632377
0.998528416
0.998425127
0.99832255
0.998220712
0.998119625
0.998019293
0.997919714
0.997820879
0.997722776
0.997625386
0.99752869
0.997432664
0.99733728
0.997242509
0.997148319
0.997054672
0.996961533
0.996868859
0.996776607
0.996684731
0.996593183
0.996501912
0.996410864
0.996319985
0.996229217
0.9961385
0.996047774
0.995956977
0.995866046
0.995774916
0.995683522
0.9955918
0.995499685
0.995407114
0.995314023
0.99522035
0.995126038
0.995031028
0.994935267
0.994838707
0.9947413
0.994643006
0.994543791
0.994443626
0.994342469
0.994239689
0.994135364
0.994029569
0.993922386
0.993813896
0.993704188
0.993593354
0.993481491
0.993368705
0.993255105
0.993140811
0.993025949
0.992910652
0.992795064
0.992679337
0.992563628
0.992448109
0.992332957
0.992218359
0.992104511
0.991991619
0.991879897
0.991769569
0.991660866
0.991554031
0.991449311
0.991346964
0.991247255
0.991150457
0.991056846
0.990966706
0.990880325
0.990797993
0.990720001
0.990646634
0.990578177
0.990514901
0.990457064
0.990404905
0.990358636
0.990318442
0.99028447
0.990256833
0.990235609
0.990220851
0.990212585
0.999401606
0.999287305
0.999170049
0.999051408
0.998931923
0.99881203
0.998692072
0.998572315
0.998452965
0.998334183
0.998216097
0.998098809
0.9979824
0.997866932
0.997752457
0.997639011
0.99752662
0.997415303
0.997305068
0.997195917
0.997087845
0.996980839
0.996874883
0.996769952
0.99666602
0.99656305
0.996461006
0.996359844
0.996259515
0.996159967
0.996061143
0.995962983
0.995865421
0.995768389
0.995671813
0.995575618
0.995479724
0.99538405
0.995288509
0.995193015
0.995097479
0.99500181
0.994905915
0.994809702
0.994713077
0.994615949
0.994518225
0.994419815
0.994320632
0.994220592
0.994119613
0.994017619
0.99391454
0.993810403
0.993704344
0.993596396
0.993486598
0.993374992
0.993261624
0.993146551
0.993029833
0.992911543
0.99279176
0.992670575
0.992548088
0.992424413
0.992299675
0.992174011
0.992047572
0.991920522
0.99179304
0.99166532
0.99153757
0.991410014
0.991282891
0.991156455
0.991030977
0.990906745
0.990784061
0.990663244
0.990544628
0.990428563
0.990315412
0.990205553
0.990099377
0.989997283
0.989899679
0.989806976
0.989719586
0.989637912
0.989562345
0.989493254
0.989430975
0.989375801
0.989327968
0.98928765
0.989254948
0.98922989
0.989212438
0.989202499
0.999334521
0.999206154
0.999074431
0.998941211
0.998806912
0.998671912
0.998536551
0.998401134
0.998265927
0.998131164
0.997997051
0.997863764
0.997731454
0.99760025
0.99747026
0.997341573
0.997214261
0.997088379
0.99696397
0.996841064
0.996719679
0.996599823
0.996481495
0.996364685
0.996249374
0.996135536
0.996023137
0.995912137
0.99580249
0.995694141
0.995587031
0.995481094
0.995376259
0.99527245
0.995169582
0.99506757
0.99496632
0.994865735
0.994765712
0.994666147
0.994566929
0.994467944
0.994369077
0.994270208
0.994171217
0.99407198
0.993972374
0.993872276
0.993771561
0.993670109
0.993567799
0.993464515
0.993360145
0.993254686
0.993147262
0.993037737
0.992926104
0.99281236
0.992696512
0.992578572
0.992458562
0.992336516
0.992212478
0.992086505
0.991958666
0.991829046
0.991697745
0.991564879
0.991430583
0.991295008
0.991158325
0.991020726
0.990882423
0.990743648
0.990604657
0.99046573
0.990327168
0.990189298
0.990052471
0.989917062
0.989783474
0.989652131
0.989523486
0.989398012
0.989276208
0.98915859
0.989045694
0.988938067
0.988836263
0.988740833
0.988652318
0.988571233
0.98849805
0.988433185
0.988376973
0.988329651
0.988291341
0.988262037
0.988241612
0.988229824
0.999266912
0.999123128
0.998976
0.998827269
0.998677192
0.998526072
0.998374246
0.99822206
0.998069851
0.997917938
0.997766611
0.997616134
0.997466738
0.997318624
0.997171964
0.997026901
0.996883557
0.996742028
0.996602391
0.996464705
0.996329014
0.996195345
0.996063713
0.995934123
0.995806565
0.995681023
0.995557468
0.995435865
0.995316168
0.995198325
0.995082276
0.994967952
0.994855278
0.994744171
0.994634543
0.994526296
0.994419328
0.994313531
0.994208789
0.994104981
0.99400198
0.993899656
0.993797871
0.993696484
0.993595351
0.993494323
0.993393247
0.993291972
0.993190342
0.9930882
0.992985392
0.992881764
0.992777164
0.992671444
0.992563985
0.992454339
0.992342451
0.992228275
0.992111769
0.9919929
0.991871645
0.991747994
0.991621945
0.991493514
0.991362731
0.99122964
0.991094305
0.99095681
0.990817257
0.990675773
0.990532505
0.990387628
0.990241339
0.990093867
0.989945465
0.989796419
0.989647045
0.989497692
0.989348741
0.989200609
0.989053749
0.988908647
0.988765829
0.988625855
0.988489322
0.98835686
0.988229127
0.988106811
0.987990616
0.987881257
0.987779442
0.987685861
0.987601162
0.987525922
0.987460624
0.987405618
0.987361095
0.987327056
0.987303304
0.987289444
0.999198393
0.999038164
0.998874555
0.998709188
0.998542171
0.998373747
0.998204267
0.998034137
0.997863776
0.997693597
0.997523985
0.997355292
0.997187828
0.997021867
0.996857643
0.996695351
0.996535158
0.996377198
0.99622158
0.996068387
0.995917686
0.995769521
0.995623922
0.995480904
0.995340468
0.995202605
0.995067291
0.994934496
0.994804177
0.994676284
0.994550754
0.994427521
0.994306506
0.994187624
0.994070781
0.993955875
0.993842796
0.993731427
0.993621643
0.993513311
0.993406294
0.993300443
0.993195608
0.993091628
0.992988338
0.99288557
0.992783147
0.992680891
0.992578619
0.992476146
0.992373284
0.992269848
0.992165648
0.992060499
0.991953848
0.991845038
0.991733969
0.991620548
0.991504686
0.991386304
0.991265332
0.991141711
0.991015393
0.990886345
0.990754552
0.990620012
0.990482747
0.990342796
0.990200223
0.990055117
0.989907591
0.98975779
0.989605885
0.989452083
0.989296622
0.989139778
0.988981865
0.988823235
0.988664283
0.98850545
0.98834722
0.988190124
0.988034743
0.987881708
0.987731697
0.98758544
0.98744371
0.987307326
0.987177141
0.987054032
0.98693889
0.986832596
0.986735995
0.986649869
0.986574888
0.98651157
0.986460231
0.986420933
0.986393453
0.98637726
0.999128976
0.99895125
0.998769989
0.998586737
0.998401495
0.998214494
0.998026133
0.9978369
0.997647313
0.99745788
0.997269081
0.997081351
0.996895076
0.996710591
0.996528183
0.996348093
0.996170522
0.995995633
0.995823561
0.995654408
0.995488256
0.995325163
0.995165169
0.995008298
0.994854559
0.994703947
0.994556444
0.994412024
0.994270647
0.994132265
0.993996817
0.993864237
0.993734447
0.99360736
0.993482879
0.993360901
0.993241311
0.993123987
0.993008798
0.992895603
0.992784253
0.992674593
0.992566456
0.992459669
0.992354053
0.99224942
0.992145575
0.992042317
0.991939442
0.991836738
0.991733992
0.991630985
0.9915275
0.991423317
0.991317969
0.991210586
0.991101027
0.990989153
0.990874831
0.990757936
0.99063835
0.990515965
0.990390686
0.990262431
0.990131135
0.989996749
0.989859245
0.989718616
0.989574879
0.989428079
0.989278288
0.989125609
0.988970178
0.98881217
0.988651794
0.988489303
0.988324994
0.988159209
0.98799234
0.987824833
0.987657185
0.987489955
0.98732376
0.987159281
0.986997261
0.98683851
0.9866839
0.986534365
0.986390895
0.986254527
0.986126328
0.986007378
0.985898738
0.985801414
0.985716304
0.985644145
0.985585433
0.985540358
0.985508729
0.985489915
0.999058684
0.998862406
0.998662275
0.998459831
0.998255046
0.998048199
0.997839779
0.99763038
0.997420626
0.997211125
0.99700244
0.996795082
0.996589493
0.996386059
0.996185104
0.9959869
0.995791671
0.995599601
0.995410837
0.995225494
0.995043661
0.994865405
0.994690773
0.994519793
0.994352479
0.994188832
0.994028838
0.993872474
0.993719703
0.993570481
0.993424752
0.99328245
0.9931435
0.993007815
0.992875301
0.992745852
0.992619354
0.992495682
0.992374701
0.992256266
0.992140223
0.992026408
0.991914646
0.991804755
0.991696541
0.991589804
0.991484334
0.991379912
0.991276313
0.991173306
0.991070653
0.990968111
0.990865434
0.990762373
0.990658563
0.990552923
0.990445272
0.99033543
0.990223222
0.990108477
0.989991033
0.989870736
0.989747441
0.98962102
0.989491357
0.989358354
0.989221932
0.989082035
0.988938631
0.988791715
0.988641312
0.98848748
0.988330312
0.98816994
0.988006537
0.987840323
0.987671565
0.987500582
0.987327749
0.987153501
0.986978336
0.986802819
0.986627586
0.986453347
0.986280893
0.986111091
0.985944893
0.985783331
0.985627512
0.985478618
0.985337884
0.985206583
0.985085996
0.984977368
0.984881856
0.984800449
0.984733888
0.984682551
0.984646349
0.98462461
0.998987544
0.998771679
0.998551459
0.998328529
0.998102923
0.997875038
0.997645496
0.997415018
0.997184337
0.996954151
0.996725097
0.996497737
0.996272558
0.996049971
0.995830323
0.9956139
0.995400936
0.995191619
0.9949861
0.994784498
0.994586906
0.99439339
0.994204
0.994018769
0.993837712
0.993660833
0.993488125
0.993319567
0.993155129
0.99299477
0.99283844
0.992686076
0.992537609
0.992392956
0.992252026
0.992114715
0.991980912
0.991850491
0.991723318
0.991599247
0.99147812
0.991359769
0.991244015
0.991130667
0.991019524
0.990910374
0.990802994
0.990697154
0.990592611
0.990489115
0.990386411
0.990284231
0.990182307
0.990080364
0.989978151
0.989874377
0.989768825
0.989661278
0.98955152
0.98943934
0.989324533
0.9892069
0.989086252
0.988962411
0.988835215
0.988704517
0.988570187
0.988432119
0.988290229
0.988144463
0.987994796
0.987841235
0.987683826
0.987522654
0.987357849
0.987189589
0.987018103
0.986843677
0.986666657
0.986487457
0.986306556
0.986124514
0.985941969
0.985759642
0.98557835
0.985399
0.9852226
0.985050258
0.984883182
0.984722673
0.98457012
0.984426978
0.984294741
0.984174898
0.984068877
0.983977956
0.983903163
0.983845132
0.983803951
0.98377898
0.998915586
0.998679136
0.99843765
0.998193002
0.997945398
0.997695418
0.997443855
0.997191569
0.996939397
0.996688115
0.99643841
0.996190878
0.995946022
0.995704263
0.995465948
0.995231359
0.995000724
0.994774225
0.994552009
0.994334186
0.994120847
0.993912056
0.993707861
0.993508296
0.993313379
0.993123119
0.992937512
0.992756543
0.99258019
0.992408418
0.992241184
0.992078433
0.991920102
0.991766116
0.99161639
0.991470826
0.991329315
0.991191739
0.991057964
0.990927846
0.990801227
0.990677939
0.990557798
0.990440611
0.990326169
0.990214254
0.990104635
0.989997067
0.989891297
0.989787061
0.989684083
0.98958208
0.98948076
0.989379827
0.989279152
0.989177239
0.989073837
0.988968693
0.988861557
0.988752179
0.988640313
0.98852572
0.988408167
0.988287432
0.988163305
0.988035592
0.987904115
0.987768718
0.987629266
0.987485655
0.987337807
0.987185679
0.987029267
0.986868605
0.986703775
0.986534909
0.986362191
0.986185867
0.986006246
0.985823707
0.985638704
0.985451776
0.985263546
0.985074736
0.984886166
0.984698765
0.984513578
0.984331766
0.984154613
0.983983522
0.983820011
0.983665697
0.983522276
0.983391475
0.983274998
0.983174432
0.98309113
0.983026042
0.982979508
0.982950999
0.998842842
0.998584863
0.998321002
0.998053513
0.997782874
0.997509913
0.997235619
0.996960992
0.996686965
0.996414368
0.996143916
0.995876211
0.99561175
0.995350939
0.995094106
0.994841512
0.994593366
0.994349831
0.994111038
0.993877087
0.993648058
0.99342401
0.993204989
0.992991029
0.992782151
0.992578368
0.992379683
0.99218609
0.991997574
0.991814111
0.991635667
0.991462199
0.991293653
0.991129965
0.990971056
0.99081684
0.990667216
0.990522069
0.990381273
0.990244688
0.990112159
0.989983518
0.989858584
0.989737158
0.989619031
0.989503979
0.989391763
0.989282131
0.989174818
0.989069548
0.988966032
0.988863969
0.98876305
0.988662957
0.988563691
0.988463552
0.988362258
0.988259527
0.988155073
0.988048612
0.98793986
0.98782854
0.987714378
0.98759711
0.987476482
0.987352254
0.987224201
0.987092119
0.986955825
0.986815161
0.986670001
0.98652025
0.986365852
0.98620679
0.986043095
0.985874849
0.985702188
0.985525311
0.985344483
0.985160044
0.984972412
0.984782093
0.984589688
0.984395898
0.984201537
0.984007537
0.98381496
0.983624999
0.983438992
0.983258419
0.983084905
0.982920208
0.982766203
0.982624844
0.982498105
0.982387892
0.982295911
0.982223476
0.982171253
0.982138913
0.998769345
0.998488958
0.998201709
0.997910389
0.997615846
0.997319206
0.997021667
0.996724364
0.996428304
0.996134347
0.995843209
0.995555469
0.995271594
0.994991952
0.994716831
0.994446459
0.994181009
0.993920619
0.993665395
0.993415421
0.993170764
0.992931477
0.992697602
0.992469174
0.992246219
0.992028757
0.991816798
0.991610348
0.991409405
0.991213956
0.991023982
0.990839453
0.990660328
0.990486554
0.990318069
0.990154794
0.989996639
0.989843501
0.98969526
0.989551782
0.98941292
0.989278507
0.989148364
0.989022296
0.98890009
0.988781518
0.988666339
0.988554292
0.988445107
0.988338493
0.988234152
0.988131768
0.988031015
0.987931557
0.987833529
0.987735029
0.987635748
0.987535374
0.987433591
0.987330082
0.98722453
0.987116619
0.987006039
0.986892485
0.986775661
0.986655285
0.986531087
0.986402815
0.986270239
0.986133154
0.985991381
0.985844775
0.985693229
0.985536673
0.985375088
0.985208503
0.985037003
0.984860738
0.984679926
0.984494859
0.984305912
0.984113553
0.983918348
0.983720969
0.98352221
0.98332299
0.98312437
0.982927558
0.982733922
0.982544999
0.982362494
0.982188283
0.982024395
0.981872992
0.981736306
0.981616561
0.981515832
0.981435838
0.981377638
0.981341191
0.998695129
0.998391526
0.998079989
0.997763999
0.997444863
0.997124038
0.996802934
0.996482804
0.996164704
0.995849494
0.995537857
0.995230326
0.994927311
0.99462912
0.994335989
0.994048091
0.99376556
0.993488496
0.993216978
0.99295107
0.992690826
0.99243629
0.992187504
0.991944504
0.991707324
0.991475993
0.991250534
0.991030967
0.990817304
0.990609551
0.990407704
0.990211749
0.990021663
0.989837409
0.989658939
0.989486189
0.989319082
0.989157526
0.989001412
0.988850615
0.988704995
0.988564391
0.988428629
0.988297514
0.988170835
0.988048363
0.987929853
0.987815042
0.987703648
0.987595377
0.987489916
0.987386939
0.987286104
0.98718706
0.987090078
0.986993056
0.986895661
0.986797552
0.986698387
0.986597816
0.98649549
0.986391061
0.986284182
0.98617451
0.986061711
0.985945459
0.985825443
0.985701367
0.985572955
0.985439952
0.985302134
0.985159304
0.985011303
0.984858014
0.984699361
0.984535323
0.984365934
0.98419129
0.984011559
0.983826984
0.983637892
0.983444705
0.983247946
0.983048252
0.982846383
0.982643235
0.982439851
0.982237439
0.982037378
0.981841236
0.981650777
0.981467968
0.98129497
0.981134125
0.980987906
0.980858846
0.980749396
0.980661708
0.980597292
0.980556483
0.998620229
0.998292682
0.997956075
0.997614734
0.997270496
0.996925168
0.996580361
0.996237422
0.995897422
0.995561188
0.995229341
0.994902339
0.994580511
0.994264088
0.993953235
0.993648066
0.993348662
0.993055082
0.992767376
0.992485587
0.992209753
0.991939915
0.991676116
0.991418397
0.991166801
0.990921372
0.990682148
0.990449169
0.990222464
0.99000206
0.989787973
0.989580209
0.989378765
0.989183622
0.98899475
0.988812102
0.988635616
0.988465215
0.988300801
0.988142262
0.987989463
0.987842255
0.987700466
0.987563907
0.987432369
0.987305624
0.987183423
0.9870655
0.986951569
0.986841328
0.986734454
0.986630612
0.986529446
0.986430589
0.986333722
0.986238035
0.986142417
0.986046502
0.985949917
0.985852285
0.985753225
0.985652355
0.985549294
0.985443662
0.985335088
0.985223207
0.985107666
0.984988124
0.984864263
0.984735783
0.98460241
0.984463901
0.984320048
0.984170681
0.984015675
0.983854956
0.983688505
0.983516368
0.983338658
0.983155566
0.98296737
0.982774442
0.982577258
0.982376409
0.982172616
0.981966739
0.981759795
0.981552972
0.981347645
0.981145395
0.980948022
0.980757556
0.980576265
0.980406645
0.980251388
0.980113318
0.979995258
0.979899814
0.979828994
0.979783594
0.998544678
0.998192541
0.997830208
0.997462994
0.997093321
0.996723346
0.996354865
0.995989281
0.995627645
0.995270715
0.99491902
0.994572916
0.994232628
0.993898298
0.993570005
0.993247795
0.992931693
0.992621716
0.992317881
0.99202021
0.991728734
0.99144349
0.991164525
0.990891889
0.990625642
0.990365842
0.990112552
0.98986583
0.989625731
0.989392304
0.989165589
0.988945615
0.988732402
0.988525952
0.988326255
0.988133283
0.987946993
0.987767321
0.987594186
0.987427485
0.987267097
0.987112879
0.986964669
0.98682228
0.986685507
0.986554124
0.986427882
0.986306511
0.986189724
0.986077208
0.985968637
0.985863662
0.985761918
0.985663023
0.985566579
0.985472024
0.985377996
0.985284108
0.985189962
0.985095156
0.984999282
0.984901927
0.984802678
0.984701124
0.984596856
0.984489473
0.984378581
0.9842638
0.984144767
0.984021139
0.983892596
0.983758847
0.983619634
0.983474738
0.983323984
0.983167244
0.983004449
0.982835589
0.982660725
0.982479996
0.982293624
0.98210193
0.981905338
0.98170439
0.981499759
0.981292262
0.981082879
0.980872767
0.980663282
0.980455999
0.980252731
0.980055554
0.979866812
0.97968913
0.979525391
0.979378686
0.979252204
0.979149009
0.97907165
0.979021457
0.998468511
0.99809122
0.99770263
0.997309176
0.996913896
0.996519294
0.996127313
0.995739373
0.995356465
0.994979243
0.994608111
0.994243299
0.993884913
0.993532987
0.993187511
0.992848454
0.992515783
0.992189474
0.991869514
0.991555908
0.99124868
0.990947869
0.990653531
0.990365733
0.990084553
0.989810071
0.989542376
0.989281551
0.989027679
0.988780836
0.988541088
0.988308492
0.98808309
0.987864911
0.987653965
0.987450247
0.987253731
0.98706437
0.9868821
0.986706831
0.986538454
0.986376835
0.98622182
0.986073229
0.985930861
0.98579449
0.98566387
0.98553873
0.985418776
0.985303694
0.985193149
0.985086783
0.98498422
0.984885067
0.98478891
0.984695312
0.984602728
0.984510747
0.984418949
0.984326904
0.984234179
0.98414033
0.984044916
0.983947491
0.983847614
0.983744846
0.983638759
0.983528933
0.983414963
0.983296464
0.983173072
0.983044451
0.982910296
0.982770339
0.982624354
0.982472164
0.982313645
0.982148737
0.981977445
0.981799853
0.981616132
0.981426544
0.98123146
0.98103137
0.980826893
0.980618798
0.980408017
0.980195667
0.979983072
0.979771785
0.979563617
0.979360662
0.979165321
0.978980316
0.978808693
0.978653789
0.978519137
0.97840826
0.978324273
0.978269114
0.998391761
0.997988836
0.997573581
0.997153661
0.996732758
0.996313691
0.99589851
0.995488608
0.995084871
0.994687812
0.994297684
0.993914566
0.993538432
0.993169197
0.992806754
0.992450997
0.992101835
0.991759202
0.991423061
0.991093407
0.99077026
0.990453669
0.990143703
0.989840452
0.989544016
0.989254506
0.988972036
0.988696724
0.98842868
0.988168012
0.987914817
0.987669179
0.987431168
0.987200838
0.986978224
0.986763343
0.986556189
0.986356734
0.986164929
0.9859807
0.985803949
0.985634554
0.985472368
0.985317219
0.98516891
0.98502722
0.984891901
0.984762682
0.984639268
0.984521339
0.984408555
0.984300549
0.984196936
0.98409731
0.984001245
0.983908432
0.983817142
0.983726944
0.983637393
0.983548037
0.983458413
0.983368054
0.983276485
0.983183232
0.983087819
0.982989773
0.98288863
0.982783931
0.982675234
0.982562111
0.982444157
0.98232099
0.98219226
0.982057651
0.981916891
0.981769751
0.981616057
0.981455695
0.981288618
0.981114855
0.98093452
0.980747822
0.980555074
0.98035671
0.980153292
0.979945536
0.979734319
0.979520711
0.979305991
0.979091679
0.978879567
0.978671748
0.978470652
0.978279077
0.978100202
0.977937578
0.977795061
0.977676626
0.977585972
0.977525702
0.998314462
0.997885501
0.997443289
0.996996818
0.996550409
0.996107166
0.995669192
0.995237803
0.994813738
0.994397333
0.993988661
0.993587634
0.993194077
0.992807783
0.992428546
0.992056182
0.991690548
0.991331542
0.990979109
0.990633235
0.99029395
0.989961315
0.989635423
0.989316387
0.98900434
0.988699424
0.988401789
0.988111585
0.987828959
0.987554051
0.98728699
0.987027891
0.986776854
0.98653396
0.986299269
0.986072821
0.985854631
0.985644692
0.98544297
0.985249407
0.985063916
0.984886389
0.984716685
0.984554641
0.984400065
0.984252738
0.984112415
0.983978825
0.983851671
0.983730628
0.983615351
0.983505467
0.98340058
0.983300274
0.98320411
0.983111913
0.983021769
0.982933224
0.982845816
0.982759066
0.982672489
0.982585588
0.982497862
0.982408806
0.982317912
0.982224674
0.982128592
0.982029171
0.98192593
0.981818401
0.981706137
0.981588714
0.981465737
0.981336845
0.981201716
0.981060074
0.980911694
0.980756411
0.980594125
0.98042481
0.980248526
0.980065424
0.97987576
0.97967991
0.979478378
0.979271819
0.979061055
0.978847098
0.978631177
0.978414767
0.978199623
0.977987822
0.977781804
0.977584414
0.977398935
0.977229106
0.977079074
0.976953254
0.976855935
0.976790441
0.998236647
0.997781328
0.997311978
0.996838991
0.996367318
0.995900295
0.995440023
0.994987688
0.994543836
0.994108592
0.993681826
0.993263266
0.992852581
0.992449435
0.992053524
0.991664594
0.991282451
0.990906966
0.990538072
0.990175759
0.989820068
0.989471084
0.989128926
0.988793743
0.988465703
0.988144985
0.987831777
0.987526269
0.987228644
0.986939078
0.986657736
0.986384765
0.986120295
0.985864436
0.985617274
0.985378873
0.985149269
0.984928475
0.984716474
0.984513223
0.984318649
0.984132653
0.983955106
0.98378585
0.9836247
0.983471439
0.983325825
0.983187588
0.983056427
0.982932017
0.982814005
0.982702013
0.982595637
0.982494451
0.982398003
0.982306254
0.982217106
0.982130087
0.982044713
0.981960484
0.981876889
0.981793407
0.98170951
0.981624662
0.981538325
0.981449962
0.981359037
0.98126502
0.981167393
0.981065648
0.980959298
0.980847877
0.980730946
0.980608098
0.980478967
0.980343226
0.980200602
0.980050879
0.979893903
0.979729597
0.979557964
0.979379098
0.979193199
0.979000581
0.97880169
0.978597118
0.978387627
0.978174166
0.977957907
0.977740268
0.97752296
0.977308026
0.977097896
0.976895438
0.976704014
0.976527515
0.976370357
0.976237366
0.976133427
0.97606262
0.998158347
0.997676422
0.997179856
0.996680505
0.996183916
0.995693601
0.995211597
0.994738903
0.994275829
0.99382226
0.993377836
0.992942091
0.992514531
0.992094694
0.99168218
0.991276669
0.990877926
0.990485803
0.990100231
0.98972121
0.989348805
0.98898313
0.988624341
0.988272625
0.98792819
0.987591261
0.987262067
0.986940839
0.986627801
0.986323167
0.986027138
0.985739896
0.985461602
0.985192395
0.984932388
0.984681669
0.984440295
0.984208299
0.98398568
0.983772412
0.983568434
0.983373658
0.983187963
0.9830112
0.982843188
0.982683715
0.982532541
0.982389395
0.982253977
0.982125958
0.982004982
0.981890662
0.98178259
0.981680327
0.981583414
0.981491948
0.981403647
0.981318024
0.981234572
0.981152772
0.981072089
0.980991978
0.980911884
0.980831243
0.980749487
0.980666049
0.980580358
0.98049185
0.980399971
0.980304175
0.980203934
0.980098742
0.979988117
0.979871609
0.979748802
0.979619326
0.979482857
0.979339129
0.979187936
0.979029148
0.978862712
0.978688666
0.978507152
0.978318424
0.978122865
0.977921006
0.977713543
0.977501362
0.977285567
0.977067518
0.976848866
0.976631611
0.976418152
0.97621136
0.976014649
0.975832033
0.975668163
0.975528251
0.975417772
0.975341594
0.998079596
0.997570887
0.997047122
0.996521658
0.996000595
0.995487552
0.994984436
0.994492004
0.994010287
0.993538897
0.99307723
0.992624614
0.992180391
0.991743974
0.991314875
0.990892716
0.990477232
0.990068265
0.989665754
0.989269721
0.988880261
0.988497527
0.988121718
0.987753066
0.987391827
0.987038273
0.986692679
0.98635532
0.986026463
0.985706364
0.985395259
0.985093366
0.984800878
0.984517962
0.98424476
0.983981381
0.983727907
0.983484387
0.983250839
0.983027249
0.982813571
0.982609726
0.982415604
0.98223106
0.98205592
0.981889976
0.98173299
0.981584692
0.98144478
0.981312924
0.981188762
0.981071905
0.980961934
0.980858406
0.980760848
0.9806695
0.980581897
0.980497535
0.98041589
0.980336421
0.980258572
0.980181773
0.980105445
0.980028996
0.979951831
0.97987335
0.979792951
0.979710038
0.979624019
0.979534312
0.97944035
0.979341587
0.979237499
0.979127591
0.979011404
0.978888519
0.978758565
0.978621226
0.978476245
0.978323437
0.978162697
0.977994005
0.977817443
0.977633207
0.977441617
0.977243139
0.977038403
0.976828226
0.976613646
0.976395951
0.97617673
0.975957923
0.975741888
0.975531478
0.975330132
0.975141959
0.974971811
0.974825261
0.974708353
0.974626769
0.998000423
0.99746482
0.996913963
0.996362728
0.995817713
0.995282569
0.994759002
0.994247472
0.99374769
0.993258967
0.992780443
0.992311231
0.991850512
0.991397579
0.990951864
0.990512942
0.990080531
0.989654472
0.989234725
0.988821344
0.988414463
0.988014283
0.987621052
0.987235054
0.9868566
0.986486009
0.986123608
0.98576972
0.985424655
0.985088709
0.98476216
0.984445259
0.984138231
0.983841274
0.983554553
0.983278203
0.983012325
0.982756988
0.982512225
0.982278036
0.982054388
0.981841211
0.981638403
0.981445828
0.981263315
0.981090661
0.980927629
0.980773949
0.980629321
0.98049341
0.980365853
0.980246255
0.980134192
0.980029212
0.979930833
0.979839437
0.97975238
0.979669143
0.979589182
0.979511939
0.979436836
0.979363281
0.979290669
0.979218384
0.979145803
0.979072295
0.97899723
0.978919976
0.978839907
0.978756406
0.978668868
0.978576706
0.978479356
0.97837628
0.978266974
0.978150973
0.978027859
0.977897265
0.977758885
0.97761248
0.977457889
0.977295038
0.97712395
0.976944758
0.976757722
0.976563241
0.976361877
0.976154378
0.975941708
0.975725083
0.975506021
0.975286394
0.975068503
0.974855168
0.974649827
0.974456659
0.974280683
0.974127799
0.974004605
0.973917606
0.99792086
0.997358317
0.996780555
0.996203971
0.995635593
0.995079023
0.994535696
0.994005716
0.993488438
0.992982849
0.992487818
0.992002245
0.991525151
0.991055719
0.990593311
0.990137469
0.989687904
0.989244472
0.988807163
0.988376074
0.98795139
0.987533365
0.987122305
0.986718553
0.986322475
0.985934447
0.985554847
0.985184047
0.984822404
0.984470256
0.984127919
0.983795679
0.983473794
0.98316249
0.982861957
0.982572352
0.982293798
0.982026379
0.981770144
0.981525108
0.981291246
0.981068499
0.980856773
0.980655938
0.980465827
0.980286241
0.980116946
0.979957672
0.979808117
0.979667947
0.979536795