/*--------------------------------*- C++ -*----------------------------------*\
| =========                 |                                                 |
| \\      /  F ield         | OpenFOAM Extend Project: Open source CFD        |
|  \\    /   O peration     | Version:  1.6-ext                               |
|   \\  /    A nd           | Web:      www.extend-project.de                 |
|    \\/     M anipulation  |                                                 |
\*---------------------------------------------------------------------------*/
FoamFile
{
    version     2.0;
    format      ascii;
    class       volScalarField;
    location    "4000";
    object      T;
}
// * * * * * * * * * * * * * * * * * * * * * * * * * * * * * * * * * * * * * //

dimensions      [0 0 0 1 0 0 0];

internalField   nonuniform List<scalar> 
40000
(
901.710185
902.026105
902.347392
902.671143
902.997785
903.32883
903.658619
903.989126
904.320335
904.652252
904.98491
905.318361
905.652659
905.987868
906.324048
906.66126
906.999562
907.339009
907.679654
908.021543
908.364722
908.709231
909.055104
909.402373
909.751066
910.101205
910.452808
910.805887
911.160451
911.516502
911.874038
912.233049
912.59352
912.955432
913.318755
913.683456
914.049493
914.416817
914.785371
915.155091
915.525904
915.89773
916.270479
916.644054
917.018348
917.393248
917.768629
918.144359
918.520298
918.896296
919.272196
919.647832
920.02303
920.398872
920.775393
921.15177
921.527433
921.901952
922.274974
922.646192
923.015317
923.382072
923.746181
924.107367
924.46535
924.819845
925.170563
925.517207
925.859478
926.197069
926.529667
926.856956
927.178612
927.494308
927.803709
928.106475
928.40226
928.690712
928.971472
929.244175
929.508446
929.763904
930.010159
930.24681
930.473448
930.689651
930.894986
931.089008
931.271258
931.441263
931.598536
931.742576
931.872869
931.988886
932.090088
932.175926
932.245847
932.299291
932.3357
932.354521
902.023796
902.397754
902.779563
903.172436
903.565134
903.957528
904.3493
904.740056
905.129597
905.517867
905.904898
906.290772
906.675608
907.05954
907.442712
907.825272
908.207372
908.58916
908.970784
909.352388
909.734115
910.116105
910.498494
910.881416
911.265002
911.649383
912.034683
912.421027
912.808534
913.197323
913.587506
913.979193
914.372489
914.767493
915.164299
915.562995
915.963658
916.366361
916.771164
917.178121
917.587271
917.998642
918.412251
918.828099
919.246171
919.666439
920.088857
920.513362
920.93987
921.368282
921.798478
922.230315
922.663635
923.099282
923.538488
923.980523
924.424732
924.870517
925.317323
925.764626
926.211925
926.658731
927.104565
927.548954
927.991422
928.431495
928.868694
929.302534
929.732525
930.158171
930.578968
930.994404
931.403962
931.807115
932.203333
932.592075
932.972795
933.344942
933.707954
934.061266
934.404302
934.736481
935.057212
935.365895
935.661919
935.944663
936.213496
936.467772
936.706836
936.930019
937.13664
937.326011
937.497433
937.650203
937.783615
937.896963
937.989543
938.060662
938.109625
938.135768
902.341941
902.774971
903.229232
903.685887
904.144667
904.603663
905.061607
905.517708
905.971509
906.422769
906.87139
907.317364
907.760743
908.201616
908.640099
909.076323
909.510429
909.942569
910.372896
910.801572
911.228759
911.654627
912.079345
912.503089
912.926038
913.348374
913.770283
914.191956
914.613586
915.035371
915.457512
915.88021
916.303672
916.728103
917.153709
917.580698
918.009273
918.439636
918.871985
919.30651
919.743398
920.182824
920.624955
921.069944
921.517931
921.96904
922.423378
922.881032
923.342066
923.806522
924.274417
924.745737
925.220442
925.69904
926.183659
926.673736
927.168723
927.668086
928.171293
928.677813
929.18711
929.698639
930.211843
930.726151
931.240976
931.755712
932.269737
932.782406
933.293054
933.800996
934.305524
934.805911
935.301407
935.791243
936.274629
936.750755
937.218793
937.677895
938.127197
938.565816
938.992855
939.4074
939.808522
940.195282
940.566725
940.921892
941.259814
941.579519
941.880038
942.160412
942.419694
942.656964
942.871333
943.061961
943.228056
943.368888
943.483786
943.572139
943.633363
943.666936
902.66404
903.166154
903.684237
904.208033
904.734958
905.262788
905.789931
906.315288
906.838117
907.357918
907.874366
908.387248
908.89644
909.401876
909.903534
910.401429
910.895603
911.386121
911.873068
912.356548
912.83668
913.313599
913.787453
914.258407
914.726638
915.192337
915.655707
916.116966
916.576344
917.034084
917.49044
917.945678
918.400074
918.853916
919.307499
919.761128
920.215113
920.66977
921.125422
921.58239
922.041
922.501573
922.964431
923.429887
923.898249
924.369812
924.844861
925.323663
925.806467
926.293502
926.78497
927.281045
927.781869
928.287656
928.801554
929.323182
929.852154
930.388071
930.930518
931.479058
932.03323
932.592543
933.156476
933.724475
934.295945
934.870257
935.446739
936.024678
936.603317
937.181858
937.759454
938.335216
938.908207
939.477446
940.041907
940.600516
941.152157
941.695668
942.229847
942.753446
943.265179
943.763723
944.247717
944.715772
945.16647
945.598374
946.010033
946.399997
946.766828
947.109114
947.425494
947.714679
947.975475
948.206818
948.407791
948.577652
948.715835
948.821954
948.895744
948.937075
902.99197
903.563473
904.149755
904.742962
905.340387
905.93985
906.539639
907.138425
907.735176
908.329086
908.919515
909.505955
910.088002
910.665338
911.237715
911.804946
912.366899
912.923485
913.47466
914.020415
914.560777
915.095805
915.625586
916.150238
916.669902
917.184749
917.694969
918.200782
918.702427
919.200166
919.694283
920.185084
920.672893
921.158056
921.640935
922.12191
922.601379
923.079752
923.557455
924.034923
924.512603
924.990951
925.470426
925.951492
926.434615
926.920257
927.408877
927.900924
928.396838
928.897041
929.401937
929.911907
930.4273
930.947986
931.478282
932.018018
932.567008
933.125041
933.691879
934.267247
934.850834
935.442286
936.041201
936.647127
937.259559
937.877933
938.501624
939.129945
939.762142
940.397391
941.034799
941.673399
942.312148
942.94993
943.585547
944.217726
944.845113
945.466273
946.079693
946.683779
947.276859
947.857187
948.422941
948.972233
949.503114
950.013583
950.501604
950.965118
951.402071
951.810441
952.188274
952.533728
952.845123
953.120997
953.360161
953.56175
953.725258
953.85055
953.937808
953.987504
903.327396
903.969232
904.627843
905.293943
905.965438
906.640441
907.317244
907.994331
908.670366
909.344178
910.014745
910.681182
911.342732
911.998751
912.648699
913.292134
913.928697
914.558106
915.180151
915.794681
916.401605
917.000884
917.592523
918.176574
918.75313
919.322322
919.884316
920.439314
920.987552
921.529297
922.064847
922.59453
923.118704
923.637752
924.152088
924.66215
925.168401
925.671327
926.171439
926.669265
927.165357
927.660279
928.154615
928.648959
929.143917
929.640101
930.13813
930.638622
931.142194
931.649455
932.161004
932.677423
933.199274
933.72657
934.263689
934.811313
935.369479
935.938198
936.517441
937.107142
937.70719
938.317419
938.937608
939.567476
940.206671
940.854771
941.511276
942.175603
942.847084
943.52496
944.208373
944.896369
945.587887
946.281762
946.976714
947.671351
948.36416
949.05351
949.737647
950.414689
951.082632
951.739345
952.382572
953.00994
953.618962
954.20705
954.77153
955.309665
955.818687
956.295835
956.738409
957.143837
957.50975
957.834076
958.115136
958.351746
958.543297
958.689817
958.791942
958.850881
903.665438
904.384362
905.12
905.863657
906.614041
907.36964
908.128768
908.889699
909.650743
910.410312
911.166944
911.919329
912.666308
913.406879
914.140181
914.865493
915.582215
916.289861
916.988046
917.676474
918.354931
919.023276
919.681433
920.329386
920.967174
921.594886
922.21266
922.820677
923.41916
924.008373
924.588619
925.160239
925.723609
926.279143
926.827286
927.36852
927.903358
928.432345
928.956056
929.475096
929.990098
930.501719
931.010644
931.517578
932.023244
932.528387
933.033763
933.54014
934.048292
934.559
935.073038
935.591179
936.11418
936.64278
937.180075
937.728307
938.287743
938.858625
939.441157
940.035502
940.641774
941.260032
941.890274
942.532428
943.186347
943.851802
944.528475
945.215951
945.913714
946.621136
947.337474
948.061862
948.793304
949.530667
950.272675
951.017905
951.764774
952.511541
953.256295
953.996954
954.731257
955.456765
956.170855
956.870723
957.553388
958.215702
958.854364
959.465944
960.046918
960.593717
961.102791
961.570694
961.994192
962.370389
962.69688
962.971908
963.194523
963.364721
963.48348
963.552779
904.008033
904.809181
905.627225
906.454058
907.289146
908.131267
908.978665
909.829317
910.681119
911.532014
912.380073
913.223541
914.060858
914.890663
915.711787
916.523243
917.324209
918.114009
918.892102
919.658063
920.411571
921.152395
921.88039
922.59548
923.297658
923.986977
924.663543
925.327519
925.979113
926.618582
927.246228
927.862394
928.467468
929.061878
929.646095
930.220627
930.786022
931.342867
931.891787
932.433443
932.968531
933.497783
934.021961
934.541862
935.058309
935.572152
936.084267
936.595547
937.106907
937.619272
938.133578
938.650762
939.171762
939.697504
940.230758
940.77481
941.330154
941.897262
942.47657
943.068479
943.673338
944.291446
944.923037
945.568274
946.227242
946.89994
947.586267
948.286022
948.998885
949.724416
950.462043
951.21105
951.970573
952.739585
953.516889
954.301109
955.090677
955.883827
956.678583
957.472749
958.263902
959.049381
959.826284
960.591461
961.341514
962.072801
962.781448
963.463368
964.114296
964.72984
965.30555
965.837022
966.320023
966.750656
967.125562
967.442151
967.698847
967.895336
968.032733
968.113699
904.355119
905.24375
906.150057
907.066317
907.992527
908.927531
909.869333
910.815498
911.763437
912.710601
913.654596
914.593245
915.524619
916.447043
917.359084
918.259535
919.147392
920.021833
920.882196
921.727958
922.558719
923.374184
924.174153
924.958508
925.727205
926.480267
927.217778
927.939879
928.646763
929.338677
930.015913
930.678813
931.327764
931.963202
932.585604
933.195495
933.793443
934.380063
934.956011
935.521987
936.078734
936.627037
937.167722
937.701654
938.229734
938.752901
939.272127
939.788414
940.30279
940.816308
941.33004
941.845073
942.362498
942.883414
943.410155
943.947069
944.494865
945.054235
945.625843
946.21032
946.808252
947.420177
948.046572
948.687845
949.344325
950.016255
950.703775
951.40692
952.125603
952.859603
953.60856
954.371956
955.149108
955.939152
956.741031
957.553484
958.37503
959.203955
960.038298
960.875837
961.714075
962.550225
963.381199
964.203595
965.013695
965.807452
966.580502
967.328176
968.045523
968.727364
969.368358
969.963108
970.506308
970.992931
971.418478
971.779277
972.072834
972.298209
972.456355
972.550427
904.706579
905.687969
906.688627
907.700844
908.724768
909.759005
910.801105
911.8481
912.89687
913.944377
914.987798
916.024592
917.052534
918.069705
919.074481
920.0655
921.041643
922.001993
922.945816
923.872532
924.781696
925.672974
926.546136
927.401035
928.237603
929.05584
929.85581
930.637632
931.401484
932.147593
932.876238
933.587748
934.282502
934.960926
935.623497
936.27074
936.90323
937.521591
938.126497
938.718671
939.298885
939.867962
940.42677
940.976226
941.517293
942.050979
942.578331
943.100441
943.618433
944.133468
944.646734
945.159444
945.67283
946.188137
946.707186
947.235384
947.773639
948.322848
948.88389
949.457613
950.044834
950.646322
951.262793
951.894898
952.543214
953.20823
953.890339
954.589823
955.306843
956.041423
956.793438
957.562599
958.34844
959.150301
959.967314
960.798385
961.642176
962.497091
963.361254
964.232494
965.108319
965.985906
966.862072
967.733264
968.595537
969.444545
970.275535
971.083347
971.862438
972.606909
973.31058
973.967085
974.570021
975.113158
975.590721
975.997753
976.33056
976.587247
976.768257
976.87695
905.062279
906.141605
907.242703
908.357354
909.485384
910.62481
911.772518
912.924909
914.078314
915.229243
916.374513
917.511313
918.637212
919.750145
920.848384
921.930499
922.995322
924.041907
925.0695
926.077508
927.065472
928.03305
928.979998
929.906157
930.811441
931.695833
932.559375
933.402165
934.224355
935.026149
935.807801
936.569618
937.311955
938.03522
938.739872
939.426424
940.095442
940.747546
941.38341
942.003766
942.6094
943.201153
943.779923
944.346663
944.902379
945.448131
945.985029
946.514232
947.036947
947.554423
948.067947
948.578843
949.088463
949.598181
950.109247
950.628115
951.155874
951.69361
952.242399
952.803298
953.377335
953.965502
954.568742
955.187943
955.823923
956.477416
957.149066
957.839407
958.548854
959.277683
960.02602
960.793825
961.580871
962.38673
963.210754
964.052055
964.909486
965.781616
966.666713
967.562717
968.467218
969.377428
970.290157
971.201789
972.108252
973.005002
973.887001
974.74871
975.584092
976.386634
977.149398
977.865109
978.526296
979.125509
979.655617
980.110219
980.484186
980.774341
980.980243
981.1051
905.422069
906.604318
907.81175
909.034988
910.273012
911.52291
912.780723
914.042157
915.303015
916.559425
917.807948
919.04561
920.26989
921.478684
922.67026
923.843206
924.996381
926.128873
927.239957
928.329068
929.395766
930.439722
931.460695
932.458521
933.433103
934.384404
935.31244
936.217283
937.09905
937.95791
938.794082
939.607835
940.39949
941.169419
941.918052
942.645872
943.353423
944.041305
944.71018
945.360772
945.993864
946.610307
947.21101
947.796947
948.369153
948.928728
949.476826
950.014665
950.543514
951.064697
951.579587
952.089602
952.596198
953.100865
953.604238
954.113804
954.630815
955.156533
955.692213
956.239104
956.798433
957.3714
957.959166
958.562841
959.183475
959.822041
960.479425
961.156412
961.853668
962.571725
963.310966
964.071604
964.853667
965.656976
966.481124
967.325456
968.189045
969.070665
969.968771
970.881467
971.806478
972.74112
973.682268
974.626321
975.569172
976.506174
977.432109
978.341168
979.226934
980.08239
980.899947
981.671513
982.38862
983.042624
983.625011
984.127839
984.544348
984.869791
985.102461
985.245006
905.785789
907.075683
908.394988
909.732434
911.085631
912.450434
913.821904
915.195041
916.565177
917.928162
919.280421
920.618946
921.94125
923.245303
924.529469
925.792438
927.033171
928.250843
929.44481
930.614564
931.759712
932.879952
933.975054
935.044856
936.089244
937.108159
938.101585
939.069551
940.012132
940.929447
941.821666
942.689004
943.531733
944.350177
945.144718
945.915798
946.66392
947.389654
948.093633
948.776559
949.439204
950.082408
950.707082
951.31421
951.904844
952.480106
953.041187
953.589347
954.125909
954.652259
955.169841
955.680155
956.184749
956.685214
957.181544
957.682241
958.188709
958.702365
959.224635
959.756942
960.3007
960.857301
961.428111
962.014451
962.617591
963.238731
963.878995
964.539406
965.220877
965.924194
966.649994
967.398748
968.17074
968.96605
969.784524
970.625757
971.489062
972.373447
973.277584
974.199779
975.137938
976.089533
977.051561
978.020512
978.992317
979.962314
980.925202
981.875005
982.805042
983.707906
984.575477
985.39896
986.168984
986.875781
987.509477
988.06054
988.520445
988.882622
989.143735
989.305435
906.153273
907.555211
908.991454
910.448055
911.920768
913.403969
914.891664
916.378181
917.858481
919.328263
920.783956
922.222654
923.64203
925.040242
926.415843
927.767706
929.094955
930.396906
931.673027
932.922896
934.146182
935.342617
936.511989
937.654128
938.768903
939.856217
940.916011
941.948259
942.952976
943.930219
944.880088
945.802734
946.698361
947.567228
948.409656
949.226031
950.016803
950.782495
951.523701
952.241088
952.935402
953.607465
954.258179
954.888521
955.499552
956.092409
956.668307
957.228538
957.774467
958.307533
958.829241
959.341162
959.844926
960.342215
960.832355
961.324857
961.821261
962.32313
962.832044
963.349589
963.877351
964.416905
964.969807
965.537577
966.121693
966.723574
967.344565
967.985924
968.648803
969.334231
970.043095
970.776123
971.533857
972.316633
973.12456
973.957487
974.814985
975.696308
976.600371
977.525707
978.470439
979.432233
980.408261
981.395154
982.388952
983.38505
984.378152
985.362212
986.330388
987.275004
988.187529
989.058587
989.878023
990.635042
991.318472
991.917197
992.42084
992.82081
993.11181
993.294047
906.524353
908.042368
909.600057
911.180007
912.775684
914.379811
915.985331
917.58598
919.176481
920.752531
922.310715
923.848368
925.363446
926.854398
928.320056
929.759544
931.172201
932.557521
933.915109
935.244648
936.545872
937.818551
939.062481
940.277478
941.463379
942.620037
943.747331
944.845167
945.91348
946.952246
947.961481
948.941254
949.891684
950.812953
951.705306
952.569056
953.40459
954.212371
954.99294
955.746923
956.475026
957.178044
957.856857
958.512432
959.145827
959.758184
960.350733
960.924792
961.481759
962.023116
962.550421
963.065307
963.569478
964.064698
964.549608
965.034719
965.521697
966.012239
966.508067
967.010922
967.522548
968.044693
968.579091
969.12745
969.691446
970.272704
970.872783
971.493163
972.135226
972.800239
973.489332
974.203482
974.943483
975.709932
976.503195
977.323385
978.170331
979.043548
979.942203
980.865081
981.81054
982.776476
983.76027
984.758739
985.768084
986.783826
987.800743
988.812806
989.813112
990.793821
991.746114
992.66016
993.525149
994.329377
995.060468
995.705768
996.253018
996.691459
997.013539
997.217584
906.898856
908.53659
910.219627
911.926331
913.647518
915.374162
917.098194
918.812889
920.51289
922.194061
923.853293
925.488304
927.097447
928.679559
930.233823
931.75967
933.256692
934.724589
936.163118
937.572067
938.951236
940.300423
941.61942
942.908016
944.165994
945.393142
946.589258
947.754156
948.887678
949.989699
951.060135
952.098953
953.106175
954.081889
955.026251
955.939491
956.821918
957.673925
958.495993
959.288692
960.052685
960.788726
961.49767
962.180463
962.838153
963.471882
964.082887
964.672502
965.242155
965.793362
966.327728
966.846941
967.35277
967.847055
968.331392
968.809823
969.287913
969.76749
970.250415
970.738576
971.233876
971.738226
972.253532
972.781688
973.324558
973.883964
974.461672
975.059378
975.678684
976.321086
976.98795
977.680493
978.399759
979.146596
979.921625
980.725221
981.557474
982.418161
983.306712
984.22217
985.163148
986.127789
987.11371
988.117953
989.136919
990.166303
991.201023
992.235139
993.261773
994.273024
995.259892
996.212222
997.118676
997.966775
998.743058
999.433411
1000.02371
1000.50093
1000.85503
1001.08203
907.276611
909.037295
910.848961
912.685028
914.533397
916.383269
918.225674
920.053595
921.861776
923.646425
925.404898
927.135422
928.836859
930.508511
932.149973
933.761023
935.341535
936.891422
938.410596
939.898948
941.356328
942.782548
944.177377
945.540555
946.871792
948.170789
949.437239
950.670849
951.871344
953.03848
954.172056
955.271923
956.337991
957.370241
958.368726
959.333583
960.265034
961.163393
962.029071
962.862575
963.664514
964.435603
965.176657
965.888601
966.572463
967.22938
967.860591
968.467443
969.051382
969.613958
970.156814
970.681689
971.190409
971.684885
972.167103
972.639879
973.110019
973.579462
974.05019
974.52422
975.003592
975.490367
975.986609
976.494379
977.015718
977.552636
978.107097
978.681
979.276163
979.894305
980.537021
981.205767
981.901831
982.626309
983.380081
984.163778
984.977755
985.822054
986.696373
987.600021
988.531879
989.490351
990.473312
991.478052
992.501207
993.538689
994.585603
995.636164
996.683589
997.720007
998.736343
999.72223
1000.66594
1001.55435
1002.37305
1003.10657
1003.73898
1004.25495
1004.64175
1004.89271
907.657447
909.543899
911.486848
913.454122
915.430521
917.403528
919.363435
921.303133
923.217674
925.103785
926.959443
928.783506
930.575434
932.335063
934.062445
935.75773
937.421083
939.052631
940.652432
942.220461
943.756602
945.260655
946.732345
948.171333
949.577237
950.949643
952.28812
953.592244
954.861603
956.09582
957.294559
958.457541
959.58455
960.675447
961.730175
962.748766
963.731347
964.678148
965.5895
966.465844
967.30773
968.115823
968.890901
969.633856
970.345697
971.027549
971.68065
972.306352
972.90612
973.481528
974.034255
974.566085
975.078898
975.574666
976.05545
976.523439
976.98636
977.446265
977.905257
978.365478
978.829107
979.298349
979.775421
980.262545
980.761931
981.275768
981.806205
982.355336
982.925185
983.517679
984.134638
984.777743
985.448518
986.148304
986.878229
987.63918
988.431773
989.256316
990.112776
991.000733
991.919342
992.867281
993.842699
994.84315
995.865533
996.906009
997.959914
999.021664
1000.08464
1001.14108
1002.18191
1003.19669
1004.1734
1005.09842
1005.95653
1006.73105
1007.40432
1007.9587
1008.37863
1008.65443
908.041196
910.055822
912.132097
914.231693
916.336212
918.431543
920.507449
922.556961
924.575647
926.560941
928.511581
930.427169
932.30784
934.154014
935.966228
937.745015
939.490826
941.203991
942.884693
944.532966
946.148701
947.731656
949.281483
950.79774
952.27992
953.727471
955.139819
956.516382
957.8566
959.159938
960.425915
961.654106
962.844161
963.995811
965.108878
966.183284
967.219055
968.216328
969.175353
970.096498
970.980253
971.827228
972.638158
973.413903
974.155448
974.863901
975.540497
976.186592
976.803662
977.393303
977.957227
978.497255
979.01532
979.513451
979.993777
980.457839
980.914288
981.365282
981.813036
982.259817
982.707935
983.159732
983.617575
984.083841
984.560907
985.051133
985.556851
986.080343
986.623829
987.189443
987.779216
988.395052
989.038702
989.711743
990.415544
991.151245
991.919715
992.721526
993.556912
994.425726
995.327399
996.26089
997.224628
998.216452
999.233538
1000.27232
1001.3284
1002.39645
1003.47005
1004.5416
1005.60217
1006.64126
1007.64674
1008.60462
1009.49899
1010.31211
1011.0247
1011.61687
1012.07014
1012.37149
908.427691
910.572494
912.783553
915.015909
917.247954
919.464168
921.654039
923.810984
925.931311
928.013337
930.056697
932.061832
934.029615
935.961084
937.857271
939.719088
941.547259
943.342289
945.104456
946.833823
948.530249
950.193423
951.822885
953.418064
954.978301
956.502879
957.991054
959.442074
960.855204
962.229745
963.565052
964.860546
966.115731
967.330202
968.503655
969.635895
970.726843
971.776539
972.785149
973.752967
974.680418
975.568057
976.416574
977.226794
977.999676
978.736311
979.437924
980.105874
980.741647
981.346858
981.923245
982.472667
982.9971
983.498631
983.979448
984.440433
984.891157
985.333879
985.770922
986.204669
986.637556
987.07206
987.510689
987.955971
988.410441
988.876629
989.357041
989.854145
990.370352
990.907996
991.469317
992.056432
992.671316
993.315777
993.991421
994.699631
995.441529
996.217945
997.029377
997.875949
998.757371
999.672882
1000.6212
1001.60045
1002.60811
1003.64091
1004.69473
1005.76451
1006.84411
1007.92617
1009.00189
1010.06089
1011.09098
1012.07793
1013.00532
1013.85447
1014.60463
1015.23373
1015.72032
1016.04779
908.816767
911.093362
913.440112
915.805043
918.163408
920.498523
922.799883
925.061559
927.280822
929.457039
931.590869
933.68367
935.737097
937.752825
939.732378
941.677029
943.587743
945.465168
947.309639
949.121206
950.899661
952.644582
954.355369
956.031284
957.671487
959.275076
960.841113
962.368655
963.85678
965.304608
966.71132
968.076176
969.398526
970.677822
971.91363
973.105637
974.253654
975.357625
976.41763
977.433887
978.406754
979.336734
980.224469
981.070748
981.876502
982.642805
983.370873
984.062062
984.717866
985.339916
985.929975
986.489935
987.021814
987.527747
988.009985
988.468728
988.91447
989.349564
989.776436
990.197581
990.615555
991.032963
991.45245
991.87669
992.308373
992.750189
993.204815
993.674898
994.163036
994.67176
995.20351
995.760616
996.345271
996.959508
997.605167
998.28387
998.996989
999.745607
1000.53048
1001.35201
1002.21018
1003.10451
1004.034
1004.99709
1005.99155
1007.01441
1008.06187
1009.12917
1010.21047
1011.29866
1012.3852
1013.45987
1014.51052
1015.52281
1016.47993
1017.36242
1018.14821
1018.81317
1019.33287
1019.6869
909.208263
911.617891
914.100722
916.597477
919.080421
921.531997
923.942017
926.305487
928.620853
930.888702
933.110819
935.289544
937.427343
939.526529
941.5891
943.616657
945.61037
947.570984
949.498846
951.393948
953.255973
955.084348
956.878294
958.636876
960.359049
962.043695
963.689664
965.295806
966.860997
968.384164
969.864309
971.30052
972.691989
974.038024
975.338058
976.591657
977.798524
978.958506
980.071598
981.137941
982.15783
983.131712
984.060185
984.944
985.784061
986.581424
987.337293
988.053023
988.730113
989.370208
989.975092
990.546688
991.087051
991.598363
992.082929
992.540259
992.981763
993.409881
993.827139
994.23614
994.639554
995.040108
995.440582
995.843787
996.252563
996.669757
997.098212
997.540749
998.000147
998.479127
998.980329
999.506289
1000.05941
1000.64196
1001.25599
1001.90337
1002.58571
1003.30436
1004.06032
1004.85426
1005.68644
1006.55667
1007.46424
1008.40788
1009.38567
1010.39497
1011.43228
1012.49319
1013.57216
1014.66241
1015.75567
1016.84195
1017.90924
1018.9432
1019.92676
1020.83983
1021.65919
1022.35874
1022.91114
1023.29203
909.602021
912.145567
914.76439
917.391711
919.997026
922.56224
925.07782
927.53998
929.948563
932.305517
934.61385
936.87693
939.098044
941.280128
943.425625
945.536421
947.61384
949.658674
951.671231
953.651395
955.598694
957.512364
959.391411
961.234672
963.040864
964.808636
966.536607
968.223402
969.867685
971.468182
973.023706
974.533172
975.995612
977.410188
978.7762
980.093093
981.360463
982.578064
983.745804
984.863754
985.932144
986.951369
987.921982
988.8447
989.7204
990.550118
991.335048
992.07654
992.776099
993.435382
994.056191
994.640477
995.190329
995.707971
996.195759
996.652502
997.090515
997.512324
997.92055
998.317896
998.707141
999.091134
999.472777
999.855021
1000.24085
1000.63325
1001.03524
1001.44981
1001.87991
1002.32844
1002.79825
1003.29206
1003.81251
1004.36205
1004.94298
1005.5574
1006.20717
1006.89387
1007.61878
1008.38281
1009.18652
1010.02998
1010.91278
1011.83396
1012.79191
1013.7843
1014.80799
1015.85887
1016.93177
1018.02025
1019.11635
1020.21039
1021.29056
1022.34261
1023.34934
1024.2902
1025.14095
1025.8737
1026.45823
1026.86615
909.997885
912.675899
915.430183
918.186359
920.911436
923.587157
926.204989
928.76264
931.26155
933.705164
936.097786
938.443844
940.74744
943.012105
945.240682
947.435288
949.597347
951.727638
953.826374
955.893281
957.927684
959.928586
961.894742
963.824728
965.717002
967.569955
969.381958
971.151402
972.876727
974.556453
976.189199
977.773706
979.308845
980.793632
982.227236
983.608986
984.938374
986.215061
987.438876
988.609818
989.72806
990.793944
991.807983
992.770859
993.683424
994.546695
995.361856
996.130255
996.853397
997.53295
998.170734
998.768723
999.329038
999.853941
1000.34583
1000.80282
1001.2381
1001.65429
1002.05409
1002.4403
1002.81582
1003.18359
1003.54665
1003.90808
1004.27098
1004.63852
1005.01385
1005.40012
1005.80047
1006.21797
1006.65566
1007.11647
1007.60322
1008.1186
1008.66513
1009.24513
1009.8607
1010.51367
1011.20558
1011.9376
1012.71056
1013.52481
1014.38025
1015.27621
1016.21139
1017.1838
1018.19062
1019.22811
1020.29146
1021.37458
1022.4699
1023.56803
1024.65748
1025.72416
1026.75086
1027.7167
1028.59658
1029.361
1029.97698
1030.41197
910.395701
913.208417
916.097226
918.980144
921.822036
924.604885
927.32152
929.971418
932.557808
935.085753
937.560909
939.988773
942.374244
944.721407
947.033446
949.312653
951.560482
953.777639
955.964183
958.119629
960.243051
962.333177
964.388476
966.407235
968.387627
970.327767
972.225766
974.079767
975.887982
977.648719
979.360405
981.021604
982.631028
984.187551
985.690216
987.138238
988.531011
989.868106
991.149278
992.374462
993.543772
994.657505
995.716134
996.720312
997.670864
998.568793
999.415272
1000.21164
1000.95941
1001.66026
1002.31602
1002.92869
1003.50042
1004.0335
1004.53037
1004.98843
1005.42175
1005.83303
1006.22505
1006.6007
1006.96298
1007.31494
1007.65972
1008.00054
1008.34065
1008.68332
1009.03189
1009.38964
1009.75989
1010.1459
1010.55087
1010.97794
1011.43014
1011.91035
1012.42131
1012.96559
1013.54551
1014.16315
1014.82029
1015.51838
1016.25852
1017.04134
1017.86704
1018.73523
1019.64495
1020.59453
1021.58151
1022.6025
1023.65306
1024.72748
1025.81858
1026.91736
1028.01266
1029.09063
1030.13417
1031.1222
1032.02893
1032.82339
1033.46997
1033.93197
910.795318
913.742669
916.764702
919.771896
922.727369
925.613779
928.425678
931.164583
933.835691
936.445779
939.001897
941.510606
943.977568
946.407365
948.80346
951.168246
953.503142
955.808713
958.084804
960.330664
962.545068
964.726429
966.872897
968.982441
971.052929
973.082186
975.068047
977.008403
978.901231
980.744627
982.536826
984.276218
985.96136
987.59099
989.164028
990.679582
992.136951
993.535629
994.875297
996.15583
997.377293
998.539939
999.644205
1000.69072
1001.68028
1002.61388
1003.49267
1004.31801
1005.09139
1005.81451
1006.48921
1007.1175
1007.70156
1008.24371
1008.74644
1009.20641
1009.63857
1010.04568
1010.4306
1010.7963
1011.14588
1011.48249
1011.80938
1012.12989
1012.44739
1012.76531
1013.0871
1013.41622
1013.75615
1014.11031
1014.4821
1014.87483
1015.29172
1015.7359
1016.21029
1016.7177
1017.26067
1017.84154
1018.46234
1019.12477
1019.83021
1020.57957
1021.37333
1022.21144
1023.09323
1024.01736
1024.98174
1025.98333
1027.01808
1028.08069
1029.16437
1030.26054
1031.35842
1032.44449
1033.50183
1034.50929
1035.44056
1036.26337
1036.93961
1037.42844
911.196585
914.278227
917.431845
920.56054
923.62613
926.612393
929.515975
932.340688
935.093861
937.784066
940.419769
943.008574
945.556855
948.069628
950.550559
953.002068
955.425463
957.821103
960.188554
962.526745
964.834108
967.108701
969.348321
971.5506
973.713078
975.833275
977.908746
979.937121
981.916143
983.843696
985.717825
987.536751
989.298884
991.002827
992.647387
994.231574
995.754599
997.215881
998.615038
999.951891
1001.22646
1002.43896
1003.58979
1004.67956
1005.70906
1006.67924
1007.59128
1008.4465
1009.24642
1009.99273
1010.68728
1011.3321
1011.9294
1012.48152
1012.99097
1013.4593
1013.89088
1014.29428
1014.67244
1015.02845
1015.36549
1015.68683
1015.99585
1016.296
1016.59079
1016.88378
1017.17857
1017.47878
1017.78803
1018.10991
1018.44799
1018.80577
1019.18667
1019.594
1020.0309
1020.50039