/*--------------------------------*- C++ -*----------------------------------*\
| =========                 |                                                 |
| \\      /  F ield         | OpenFOAM Extend Project: Open source CFD        |
|  \\    /   O peration     | Version:  1.6-ext                               |
|   \\  /    A nd           | Web:      www.extend-project.de                 |
|    \\/     M anipulation  |                                                 |
\*---------------------------------------------------------------------------*/
FoamFile
{
    version     2.0;
    format      ascii;
    class       volVectorField;
    location    "4000";
    object      U;
}
// * * * * * * * * * * * * * * * * * * * * * * * * * * * * * * * * * * * * * //

dimensions      [0 1 -1 0 0 0 0];

internalField   nonuniform List<vector> 
40000
(
(-1.77080139e-06 0 1.77202592e-06)
(-7.05493203e-06 0 2.17349553e-06)
(-1.08299048e-05 0 1.53400432e-06)
(-1.02483869e-05 0 4.72846542e-07)
(-3.81056677e-06 0 -6.95422248e-07)
(8.93728008e-06 0 -1.84299725e-06)
(2.80003235e-05 0 -2.90999385e-06)
(5.31466352e-05 0 -3.87415605e-06)
(8.40211573e-05 0 -4.73141187e-06)
(0.000120209325 0 -5.48546581e-06)
(0.000161272766 0 -6.1429334e-06)
(0.000206768762 0 -6.71120521e-06)
(0.00025626081 0 -7.19752333e-06)
(0.000309324183 0 -7.60861823e-06)
(0.000365548637 0 -7.9505991e-06)
(0.00042453949 0 -8.22895623e-06)
(0.000485917796 0 -8.44860993e-06)
(0.000549320011 0 -8.61397592e-06)
(0.000614397436 0 -8.72903376e-06)
(0.000680815568 0 -8.79739174e-06)
(0.00074825346 0 -8.82234601e-06)
(0.000816403154 0 -8.8069326e-06)
(0.000884969187 0 -8.75397243e-06)
(0.00095366821 0 -8.66610954e-06)
(0.0010222287 0 -8.54584292e-06)
(0.00109039076 0 -8.39555274e-06)
(0.00115790602 0 -8.21752139e-06)
(0.00122453761 0 -8.01395007e-06)
(0.00129006014 0 -7.78697159e-06)
(0.00135425981 0 -7.53865982e-06)
(0.00141693447 0 -7.27103644e-06)
(0.00147789378 0 -6.98607529e-06)
(0.00153695927 0 -6.68570503e-06)
(0.00159396454 0 -6.37181011e-06)
(0.00164875535 0 -6.04623075e-06)
(0.00170118973 0 -5.71076186e-06)
(0.00175113805 0 -5.36715143e-06)
(0.00179848313 0 -5.01709836e-06)
(0.00184312023 0 -4.66224999e-06)
(0.00188495708 0 -4.3041995e-06)
(0.00192391385 0 -3.94448314e-06)
(0.00195992308 0 -3.5845775e-06)
(0.0019929296 0 -3.22589687e-06)
(0.00202289034 0 -2.86979061e-06)
(0.00204977424 0 -2.51754076e-06)
(0.00207356193 0 -2.17035974e-06)
(0.00209424556 0 -1.82938823e-06)
(0.00211182842 0 -1.49569334e-06)
(0.00212632468 0 -1.17026698e-06)
(0.00213775889 0 -8.54023933e-07)
(0.00214616559 0 -5.47800189e-07)
(0.00215158875 0 -2.52341817e-07)
(0.00215408097 0 3.17159389e-08)
(0.00215370173 0 3.04340825e-07)
(0.00215051425 0 5.65675789e-07)
(0.00214458628 0 8.15129664e-07)
(0.00213599202 0 1.05254207e-06)
(0.0021248102 0 1.27772345e-06)
(0.00211112392 0 1.49056854e-06)
(0.00209502002 0 1.6910453e-06)
(0.00207658833 0 1.87919717e-06)
(0.00205592097 0 2.05514634e-06)
(0.00203311146 0 2.21909485e-06)
(0.00200825394 0 2.37132576e-06)
(0.00198144219 0 2.51220349e-06)
(0.00195276875 0 2.64217376e-06)
(0.00192232384 0 2.7617629e-06)
(0.00189019444 0 2.87157678e-06)
(0.00185646317 0 2.97229907e-06)
(0.00182120726 0 3.06468893e-06)
(0.00178449745 0 3.14957801e-06)
(0.00174639694 0 3.22786666e-06)
(0.0017069603 0 3.3005192e-06)
(0.00166623244 0 3.36855815e-06)
(0.00162424757 0 3.43305721e-06)
(0.00158102829 0 3.49513276e-06)
(0.0015365847 0 3.55593367e-06)
(0.00149091366 0 3.61662913e-06)
(0.00144399817 0 3.67839401e-06)
(0.0013958069 0 3.74239157e-06)
(0.00134629407 0 3.80975279e-06)
(0.00129539943 0 3.88155204e-06)
(0.00124304877 0 3.95877832e-06)
(0.00118915471 0 4.04230156e-06)
(0.00113361806 0 4.13283358e-06)
(0.00107632978 0 4.23088306e-06)
(0.00101717359 0 4.33670461e-06)
(0.000956029403 0 4.45024221e-06)
(0.000892777634 0 4.57106842e-06)
(0.000827304491 0 4.69832114e-06)
(0.000759508227 0 4.8306441e-06)
(0.000689306391 0 4.96613196e-06)
(0.000616643864 0 5.10230479e-06)
(0.000541501573 0 5.23608252e-06)
(0.000463904964 0 5.36388301e-06)
(0.000383932799 0 5.48157222e-06)
(0.000301722434 0 5.58498825e-06)
(0.000217477915 0 5.66925845e-06)
(0.000131464391 0 5.73099307e-06)
(4.40219374e-05 0 5.76356547e-06)
(-2.16072092e-06 0 7.05011595e-06)
(-7.95783477e-06 0 8.02413734e-06)
(-7.34996126e-06 0 1.80351733e-06)
(4.64337549e-06 0 -8.00123328e-06)
(3.11759124e-05 0 -1.92718608e-05)
(7.35758941e-05 0 -3.08285671e-05)
(0.000132189384 0 -4.20271047e-05)
(0.000206746314 0 -5.25306976e-05)
(0.000296599119 0 -6.2176152e-05)
(0.000400874187 0 -7.08974357e-05)
(0.00051857001 0 -7.86825874e-05)
(0.000648619279 0 -8.55493638e-05)
(0.000789928049 0 -9.15313408e-05)
(0.000941400236 0 -9.66699265e-05)
(0.00110195273 0 -0.000101009761)
(0.00127052445 0 -0.000104596091)
(0.00144608162 0 -0.000107473319)
(0.00162762058 0 -0.000109684245)
(0.00181416907 0 -0.000111269747)
(0.00200478674 0 -0.000112268692)
(0.00219856512 0 -0.000112718009)
(0.00239462735 0 -0.000112652831)
(0.00259212795 0 -0.000112106675)
(0.00279025253 0 -0.000111111626)
(0.00298821771 0 -0.00010969852)
(0.00318527106 0 -0.000107897103)
(0.00338069125 0 -0.00010573617)
(0.00357378823 0 -0.000103243682)
(0.00376390364 0 -0.000100446857)
(0.00395041113 0 -9.73722348e-05)
(0.0041327169 0 -9.40457292e-05)
(0.0043102601 0 -9.0492656e-05)
(0.00448251344 0 -8.67377476e-05)
(0.00464898355 0 -8.28051559e-05)
(0.00480921154 0 -7.8718443e-05)
(0.00496277335 0 -7.45005659e-05)
(0.00510928007 0 -7.01738533e-05)
(0.00524837829 0 -6.57599796e-05)
(0.00537975019 0 -6.12799346e-05)
(0.00550311368 0 -5.67539926e-05)
(0.00561822238 0 -5.22016798e-05)
(0.00572486553 0 -4.76417428e-05)
(0.0058228677 0 -4.30921158e-05)
(0.00591208854 0 -3.85698905e-05)
(0.00599242226 0 -3.40912852e-05)
(0.00606379706 0 -2.96716157e-05)
(0.00612617447 0 -2.53252658e-05)
(0.00617954845 0 -2.10656573e-05)
(0.00622394444 0 -1.69052163e-05)
(0.00625941818 0 -1.28553298e-05)
(0.00628605432 0 -8.92627976e-06)
(0.00630396476 0 -5.12708464e-06)
(0.00631328635 0 -1.4651183e-06)
(0.00631417732 0 2.05572796e-06)
(0.0063068118 0 5.43363419e-06)
(0.00629137662 0 8.66427964e-06)
(0.00626807719 0 1.17447204e-05)
(0.0062371327 0 1.46727319e-05)
(0.00619877563 0 1.74469053e-05)
(0.00615324976 0 2.0066735e-05)
(0.00610080822 0 2.25326372e-05)
(0.0060417113 0 2.48459805e-05)
(0.00597622415 0 2.70091026e-05)
(0.00590461427 0 2.90253208e-05)
(0.00582714893 0 3.08989356e-05)
(0.00574409244 0 3.26352274e-05)
(0.00565570327 0 3.42404472e-05)
(0.00556223115 0 3.57218002e-05)
(0.00546391404 0 3.70874223e-05)
(0.00536097509 0 3.83463489e-05)
(0.0052536195 0 3.95084751e-05)
(0.00514203145 0 4.05845053e-05)
(0.00502637101 0 4.15858921e-05)
(0.00490677115 0 4.25247614e-05)
(0.00478333484 0 4.34138231e-05)
(0.00465613234 0 4.42662631e-05)
(0.00452519874 0 4.5095616e-05)
(0.00439053182 0 4.59156127e-05)
(0.00425209029 0 4.67400019e-05)
(0.00410979263 0 4.75823376e-05)
(0.00396351651 0 4.84557316e-05)
(0.00381309912 0 4.9372562e-05)
(0.00365833841 0 5.03441348e-05)
(0.00349899558 0 5.13802917e-05)
(0.00333479897 0 5.24889611e-05)
(0.00316544969 0 5.36756473e-05)
(0.00299062911 0 5.4942862e-05)
(0.00281000864 0 5.62895026e-05)
(0.00262326191 0 5.77101956e-05)
(0.00243007971 0 5.91946314e-05)
(0.0022301875 0 6.07269443e-05)
(0.00202336568 0 6.22851973e-05)
(0.00180947192 0 6.38410966e-05)
(0.00158846525 0 6.53599874e-05)
(0.00136042964 0 6.6801464e-05)
(0.0011255977 0 6.8120183e-05)
(0.00088436644 0 6.92683289e-05)
(0.000637316954 0 7.01958886e-05)
(0.000385203669 0 7.08577892e-05)
(0.000128981772 0 7.12025129e-05)
(-1.4991645e-06 0 1.07519145e-05)
(-1.53830508e-06 0 7.35550083e-06)
(1.1212914e-05 0 -1.07538458e-05)
(4.18864716e-05 0 -3.67653908e-05)
(9.42344539e-05 0 -6.64341739e-05)
(0.000170110514 0 -9.7138529e-05)
(0.000270184517 0 -0.000127286368)
(0.000394290855 0 -0.000155941821)
(0.000541699301 0 -0.000182579348)
(0.000711304678 0 -0.00020692794)
(0.000901761963 0 -0.000228873625)
(0.00111157976 0 -0.000248398585)
(0.0013391844 0 -0.000265543018)
(0.00158296339 0 -0.000280381204)
(0.00184129474 0 -0.000293006458)
(0.00211256634 0 -0.000303521728)
(0.00239518886 0 -0.000312033779)
(0.00268760392 0 -0.000318649679)
(0.00298828948 0 -0.000323474777)
(0.00329576312 0 -0.000326611626)
(0.00360858414 0 -0.000328159511)
(0.00392535496 0 -0.000328214336)
(0.00424472207 0 -0.000326868744)
(0.00456537677 0 -0.000324212333)
(0.00488605589 0 -0.000320331931)
(0.00520554251 0 -0.000315311872)
(0.00552266677 0 -0.000309234248)
(0.00583630669 0 -0.00030217913)
(0.00614538915 0 -0.000294224743)
(0.00644889084 0 -0.000285447596)
(0.0067458393 0 -0.00027592257)
(0.00703531392 0 -0.000265722965)
(0.00731644696 0 -0.000254920515)
(0.00758842447 0 -0.000243585371)
(0.00785048722 0 -0.000231786059)
(0.00810193146 0 -0.000219589421)
(0.00834210957 0 -0.000207060539)
(0.00857043068 0 -0.000194262652)
(0.00878636101 0 -0.000181257059)
(0.00898942415 0 -0.000168103029)
(0.00917920114 0 -0.000154857696)
(0.00935533039 0 -0.000141575964)
(0.00951750737 0 -0.000128310412)
(0.0096654842 0 -0.000115111193)
(0.00979906898 0 -0.000102025945)
(0.00991812489 0 -8.90996973e-05)
(0.0100225692 0 -7.63747741e-05)
(0.0101123718 0 -6.38906981e-05)
(0.0101875539 0 -5.16840742e-05)
(0.0102481858 0 -3.97884419e-05)
(0.010294385 0 -2.82340541e-05)
(0.0103263134 0 -1.70474524e-05)
(0.0103441737 0 -6.25064438e-06)
(0.0103482042 0 4.14178615e-06)
(0.010338675 0 1.41215786e-05)
(0.0103158762 0 2.36771121e-05)
(0.0102801285 0 3.2799047e-05)
(0.0102317763 0 4.14804188e-05)
(0.0101711858 0 4.97166141e-05)
(0.0100987424 0 5.75056315e-05)
(0.0100148475 0 6.48481472e-05)
(0.00991991519 0 7.1747603e-05)
(0.00981436795 0 7.8210256e-05)
(0.00969863327 0 8.4245211e-05)
(0.00957313912 0 8.98644312e-05)
(0.00943830966 0 9.50827295e-05)
(0.00929456062 0 9.99177415e-05)
(0.00914229456 0 0.000104389877)
(0.00898189604 0 0.000108522253)
(0.00881372662 0 0.0001123406)
(0.00863811992 0 0.000115873144)
(0.00845537657 0 0.000119150462)
(0.00826575924 0 0.000122205295)
(0.00806948785 0 0.000125072334)
(0.00786673489 0 0.000127787952)
(0.00765762105 0 0.000130389893)
(0.00744221129 0 0.00013291689)
(0.0072205114 0 0.000135408228)
(0.00699246522 0 0.000137903219)
(0.00675795279 0 0.000140440585)
(0.00651678951 0 0.000143057742)
(0.00626872664 0 0.000145789957)
(0.00601345341 0 0.000148669376)
(0.00575060107 0 0.000151723905)
(0.00547974917 0 0.000154975921)
(0.00520043454 0 0.000158440835)
(0.00491216339 0 0.000162125479)
(0.00461442686 0 0.00016602637)
(0.00430672043 0 0.000170127873)
(0.00398856751 0 0.00017440037)
(0.00365954722 0 0.000178798554)
(0.00331932627 0 0.000183260047)
(0.00296769408 0 0.000187704638)
(0.00260460053 0 0.00019203439)
(0.002230193 0 0.00019613523)
(0.00184485324 0 0.000199879638)
(0.00144922275 0 0.000203132541)
(0.00104423218 0 0.000205754651)
(0.000631087043 0 0.000207617031)
(0.000211305124 0 0.000208585989)
(-4.00917332e-07 0 9.95187975e-06)
(8.63024403e-06 0 -5.03085388e-06)
(3.81422315e-05 0 -4.16273791e-05)
(9.22526426e-05 0 -9.04410913e-05)
(0.000174516249 0 -0.00014528195)
(0.000286886055 0 -0.000202063293)
(0.000430161866 0 -0.000258131399)
(0.000604245527 0 -0.000311812072)
(0.000808383594 0 -0.00036208735)
(0.00104135133 0 -0.000408374203)
(0.00130159578 0 -0.000450375642)
(0.00158734298 0 -0.000487981233)
(0.00189667701 0 -0.000521200796)
(0.0022275973 0 -0.000550120342)
(0.0025780598 0 -0.000574872863)
(0.00294600632 0 -0.000595619073)
(0.00332938522 0 -0.000612534823)
(0.00372616606 0 -0.000625802988)
(0.00413434986 0 -0.000635608376)
(0.00455197636 0 -0.00064213464)
(0.00497712933 0 -0.000645562531)
(0.00540794041 0 -0.000646069007)
(0.00584259212 0 -0.000643826902)
(0.00627932035 0 -0.000639004912)
(0.00671641648 0 -0.000631767765)
(0.00715222938 0 -0.000622276479)
(0.00758516725 0 -0.000610688623)
(0.0080136995 0 -0.00059715857)
(0.00843635856 0 -0.000581837694)
(0.00885174167 0 -0.000564874512)
(0.00925851266 0 -0.000546414772)
(0.00965540365 0 -0.00052660147)
(0.0100412167 0 -0.000505574828)
(0.0104148254 0 -0.000483472211)
(0.0107751762 0 -0.000460428023)
(0.0111212897 0 -0.000436573551)
(0.0114522618 0 -0.000412036804)
(0.0117672645 0 -0.000386942322)
(0.0120655468 0 -0.000361410981)
(0.0123464349 0 -0.000335559789)
(0.0126093328 0 -0.000309501682)
(0.012853722 0 -0.000283345315)
(0.0130791614 0 -0.000257194862)
(0.0132852868 0 -0.000231149818)
(0.0134718101 0 -0.000205304797)
(0.0136385182 0 -0.000179749343)
(0.0137852717 0 -0.000154567722)
(0.0139120032 0 -0.000129838715)
(0.014018715 0 -0.000105635367)
(0.0141054771 0 -8.20246768e-05)
(0.0141724237 0 -5.90671514e-05)
(0.0142197501 0 -3.68160594e-05)
(0.0142477081 0 -1.53161757e-05)
(0.0142565993 0 5.39960829e-06)
(0.0142467741 0 2.53110279e-05)
(0.0142186105 0 4.43952958e-05)
(0.0141725298 0 6.26325889e-05)
(0.0141089862 0 8.00081174e-05)
(0.0140284648 0 9.65117176e-05)
(0.0139314781 0 0.00011213836)
(0.0138185615 0 0.000126888297)
(0.0136902685 0 0.000140767236)
(0.0135471657 0 0.00015378644)
(0.0133898275 0 0.000165962801)
(0.0132188304 0 0.000177318857)
(0.0130347469 0 0.00018788278)
(0.0128381397 0 0.000197688328)
(0.0126295545 0 0.000206774747)
(0.0124095142 0 0.00021518664)
(0.0121785117 0 0.000222973783)
(0.0119370033 0 0.000230190892)
(0.0116854019 0 0.000236897332)
(0.0114240701 0 0.000243156755)
(0.0111533139 0 0.000249036664)
(0.0108733762 0 0.000254607886)
(0.010584431 0 0.000259943951)
(0.0102865781 0 0.000265120345)
(0.00997983825 0 0.000270213632)
(0.00966414965 0 0.000275300422)
(0.00933936542 0 0.000280456158)
(0.00900525243 0 0.0002857537)
(0.0086614921 0 0.000291261677)
(0.00830768328 0 0.000297042584)
(0.00794334766 0 0.000303150592)
(0.00756793836 0 0.000309629051)
(0.00718085201 0 0.000316507697)
(0.00678144493 0 0.000323799543)
(0.00636905403 0 0.000331497529)
(0.00594302266 0 0.000339571012)
(0.00550273211 0 0.000347962265)
(0.00504763844 0 0.000356583241)
(0.00457731483 0 0.000365312977)
(0.00409149811 0 0.00037399617)
(0.00359013861 0 0.000382443466)
(0.00307344934 0 0.000390434434)
(0.00254195465 0 0.000397723016)
(0.00199652445 0 0.000404048081)
(0.00143841235 0 0.000409141945)
(0.000869237837 0 0.000412754115)
(0.000291034811 0 0.000414635784)
(8.2046749e-07 0 3.05398135e-06)
(2.04496624e-05 0 -3.2549959e-05)
(6.92494017e-05 0 -9.49822451e-05)
(0.00014965362 0 -0.000173143859)
(0.000264479303 0 -0.00025934128)
(0.000415409341 0 -0.000348226889)
(0.000603142867 0 -0.000436145616)
(0.000827533685 0 -0.000520665983)
(0.00108777625 0 -0.000600222446)
(0.00138255644 0 -0.000673854353)
(0.00171018023 0 -0.000741019456)
(0.00206867827 0 -0.000801462095)
(0.00245588846 0 -0.000855120744)
(0.00286951981 0 -0.000902063573)
(0.00330720106 0 -0.000942443819)
(0.00376651723 0 -0.000976469081)
(0.00424503709 0 -0.00100438039)
(0.00474033364 0 -0.00102643811)
(0.0052499994 0 -0.00104291254)
(0.00577165802 0 -0.00105407791)
(0.00630297313 0 -0.00106020856)
(0.00684165524 0 -0.00106157663)
(0.00738546737 0 -0.00105845085)
(0.00793222972 0 -0.00105109592)
(0.00847982366 0 -0.00103977225)
(0.00902619536 0 -0.00102473601)
(0.00956935915 0 -0.00100623924)
(0.0101074006 0 -0.000984529944)
(0.0106384795 0 -0.000959852227)
(0.0111608328 0 -0.000932446352)
(0.011672777 0 -0.000902548737)
(0.0121727111 0 -0.000870391875)
(0.0126591188 0 -0.000836204208)
(0.0131305707 0 -0.000800209929)
(0.0135857265 0 -0.000762628739)
(0.0140233369 0 -0.000723675562)
(0.0144422448 0 -0.000683560235)
(0.0148413871 0 -0.000642487171)
(0.0152197955 0 -0.000600655009)
(0.0155765976 0 -0.000558256258)
(0.0159110169 0 -0.000515476942)
(0.0162223735 0 -0.000472496239)
(0.0165100835 0 -0.000429486138)
(0.0167736591 0 -0.000386611086)
(0.0170127071 0 -0.000344027651)
(0.0172269281 0 -0.00030188418)
(0.017416115 0 -0.000260320448)
(0.0175801506 0 -0.000219467286)
(0.0177190057 0 -0.000179446152)
(0.0178327356 0 -0.000140368611)
(0.0179214768 0 -0.000102335613)
(0.0179854427 0 -6.54364114e-05)
(0.0180249186 0 -2.97468917e-05)
(0.0180402536 0 4.673631e-06)
(0.018031863 0 3.77863793e-05)
(0.0180001987 0 6.95532483e-05)
(0.0179457673 0 9.99394219e-05)
(0.0178691187 0 0.000128918889)
(0.0177708427 0 0.000156473243)
(0.0176515646 0 0.000182592508)
(0.0175119399 0 0.0002072754)
(0.0173526481 0 0.000230529611)
(0.0171743871 0 0.000252371989)
(0.0169778656 0 0.00027282865)
(0.0167637971 0 0.000291935021)
(0.0165328915 0 0.000309735821)
(0.016285848 0 0.000326284981)
(0.0160233468 0 0.000341645493)
(0.015746041 0 0.000355889191)
(0.0154545482 0 0.000369096452)
(0.015149442 0 0.000381355812)
(0.0148312434 0 0.00039276348)
(0.0145004129 0 0.000403422745)
(0.0141573416 0 0.000413443253)
(0.0138023442 0 0.000422940139)
(0.0134356506 0 0.000432032994)
(0.0130574005 0 0.000440844636)
(0.0126676366 0 0.000449499662)
(0.0122663004 0 0.000458122751)
(0.0118532295 0 0.000466836666)
(0.0114281554 0 0.000475759936)
(0.0109907054 0 0.000485004163)
(0.0105404053 0 0.000494670905)
(0.0100766869 0 0.000504848124)
(0.00959889796 0 0.00051560613)
(0.00910631764 0 0.000526993051)
(0.00859817598 0 0.000539029825)
(0.00807367971 0 0.000551704809)
(0.00753204392 0 0.000564968144)
(0.00697253048 0 0.000578726161)
(0.00639449303 0 0.000592836221)
(0.00579742857 0 0.0006071026)
(0.00518103412 0 0.000621274237)
(0.00454526749 0 0.000635045256)
(0.00389040726 0 0.000648059645)
(0.00321711227 0 0.00065992022)
(0.00252646393 0 0.000670204943)
(0.001820013 0 0.000678482477)
(0.00109975755 0 0.000684346963)
(0.000368206009 0 0.00068740535)
(2.03862509e-06 0 -1.05017862e-05)
(3.27510926e-05 0 -7.68180718e-05)
(0.000101941342 0 -0.000173122738)
(0.000210055421 0 -0.000287429914)
(0.000358855439 0 -0.000411045879)
(0.000549479744 0 -0.00053766454)
(0.000782318771 0 -0.000662791334)
(0.00105704144 0 -0.000783305984)
(0.00137271768 0 -0.000897106938)
(0.00172792334 0 -0.00100283656)
(0.00212084064 0 -0.00109967409)
(0.002549348 0 -0.00118718196)
(0.00301109646 0 -0.00126519302)
(0.00350357267 0 -0.00133372861)
(0.00402414972 0 -0.00139293956)
(0.0045701275 0 -0.00144306414)
(0.00513876457 0 -0.00148439826)
(0.00572730312 0 -0.00151727469)
(0.00633298867 0 -0.0015420487)
(0.00695308558 0 -0.00155908828)
(0.0075848895 0 -0.00156876766)
(0.00822573744 0 -0.00157146309)
(0.00887301624 0 -0.00156755017)
(0.0095241696 0 -0.00155740223)
(0.0101767044 0 -0.00154138944)
(0.010828196 0 -0.00151987824)
(0.0114762936 0 -0.00149323112)
(0.0121187246 0 -0.00146180639)
(0.0127532991 0 -0.00142595809)
(0.0133779136 0 -0.00138603584)
(0.0139905552 0 -0.00134238459)
(0.0145893052 0 -0.00129534438)
(0.0151723417 0 -0.00124525004)
(0.0157379437 0 -0.00119243074)
(0.0162844928 0 -0.00113720961)
(0.0168104765 0 -0.0010799032)
(0.0173144901 0 -0.00102082099)
(0.0177952385 0 -0.00096026485)
(0.0182515377 0 -0.000898528478)
(0.0186823161 0 -0.000835896838)
(0.0190866153 0 -0.000772645606)
(0.0194635905 0 -0.000709040619)
(0.0198125103 0 -0.000645337327)
(0.0201327569 0 -0.000581780259)
(0.0204238246 0 -0.000518602492)
(0.020685319 0 -0.000456025121)
(0.0209169554 0 -0.000394256719)
(0.021118556 0 -0.000333492752)
(0.0212900478 0 -0.000273914939)
(0.0214314589 0 -0.000215690468)
(0.0215429144 0 -0.000158970979)
(0.021624632 0 -0.000103891158)
(0.0216769162 0 -5.05666236e-05)
(0.0217001493 0 9.0875743e-07)
(0.0216947942 0 5.04700718e-05)
(0.0216613658 0 9.80591081e-05)
(0.0216004407 0 0.000143621398)
(0.0215126509 0 0.000187115893)
(0.0213986768 0 0.000228512847)
(0.0212592431 0 0.000267794994)
(0.0210951119 0 0.000304957952)
(0.0209070762 0 0.000340010653)
(0.0206959522 0 0.000372975603)
(0.0204625714 0 0.000403889054)
(0.0202077727 0 0.000432801078)
(0.019932393 0 0.000459775542)
(0.0196372586 0 0.000484889992)
(0.0193231751 0 0.000508235438)
(0.0189909184 0 0.000529916028)
(0.0186412244 0 0.000550048611)
(0.0182747788 0 0.000568762163)
(0.0178922073 0 0.000586197072)
(0.0174940658 0 0.000602504251)
(0.0170808302 0 0.000617844065)
(0.0166528878 0 0.000632385043)
(0.016210528 0 0.000646302337)
(0.0157539348 0 0.000659775906)
(0.0152831798 0 0.000672988365)
(0.0147982169 0 0.00068612247)
(0.0142988788 0 0.000699358172)
(0.0137848748 0 0.000712869196)
(0.0132557927 0 0.000726819073)
(0.0127111026 0 0.000741356577)
(0.0121501646 0 0.000756610502)
(0.0115722416 0 0.000772683755)
(0.0109765164 0 0.000789646745)
(0.0103621149 0 0.000807530102)
(0.00972813617 0 0.000826316862)
(0.0090736888 0 0.000845934319)
(0.00839793587 0 0.000866245941)
(0.00770014696 0 0.000887043945)
(0.00697975784 0 0.000908043376)
(0.00623643622 0 0.000928878854)
(0.00547015213 0 0.000949105337)
(0.00468124788 0 0.000968204762)
(0.00387050734 0 0.000985599109)
(0.00303920602 0 0.0010006735)
(0.00218916659 0 0.00101280039)
(0.00132273219 0 0.00102138719)
(0.000442848396 0 0.00102586953)
(3.19311563e-06 0 -3.08326884e-05)
(4.48907659e-05 0 -0.000138485258)
(0.000134631501 0 -0.00027719509)
(0.000270817623 0 -0.000434735179)
(0.000454011856 0 -0.0006018831)
(0.00068463323 0 -0.000771702707)
(0.000962604083 0 -0.000939072525)
(0.00128728313 0 -0.00110030807)
(0.00165753082 0 -0.00125283424)
(0.00207176632 0 -0.00139491798)
(0.00252803412 0 -0.0015254569)
(0.00302407175 0 -0.00164381515)
(0.00355737317 0 -0.001749698)
(0.0041252449 0 -0.00184305726)
(0.00472485427 0 -0.00192402067)
(0.00535326989 0 -0.00199283997)
(0.0060074953 0 -0.00204985285)
(0.00668449657 0 -0.00209545554)
(0.00738122509 0 -0.00213008326)
(0.00809463631 0 -0.00215419637)
(0.00882170526 0 -0.0021682708)
(0.00955943966 0 -0.0021727914)
(0.010304891 0 -0.00216824755)
(0.0110551643 0 -0.00215513015)
(0.0118074263 0 -0.00213392967)
(0.0125589134 0 -0.00210513485)
(0.013306938 0 -0.00206923172)
(0.0140488955 0 -0.00202670304)
(0.0147822693 0 -0.00197802761)
(0.0155046368 0 -0.00192367984)
(0.0162136741 0 -0.00186412918)
(0.0169071607 0 -0.0017998395)
(0.0175829837 0 -0.00173126852)
(0.0182391419 0 -0.00165886712)
(0.0188737494 0 -0.00158307858)
(0.0194850385 0 -0.00150433786)
(0.020071363 0 -0.00142307076)
(0.0206312002 0 -0.00133969318)
(0.0211631531 0 -0.00125461021)
(0.0216659524 0 -0.00116821539)
(0.0221384567 0 -0.00108088986)
(0.0225796545 0 -0.000993001569)
(0.0229886633 0 -0.000904904477)
(0.0233647302 0 -0.000816937806)
(0.0237072309 0 -0.000729425258)
(0.0240156685 0 -0.000642674256)
(0.0242896716 0 -0.000556975161)
(0.0245289924 0 -0.000472600451)
(0.0247335033 0 -0.000389803811)
(0.0249031935 0 -0.000308819069)
(0.0250381644 0 -0.000229858866)
(0.025138625 0 -0.000153112924)
(0.0252048856 0 -7.87455443e-05)
(0.0252373493 0 -6.89295919e-06)
(0.0252365097 0 6.23452358e-05)
(0.0252029336 0 0.00012888478)
(0.0251372533 0 0.000192647135)
(0.0250401697 0 0.000253571902)
(0.0249124407 0 0.000311614462)
(0.0247548771 0 0.000366747467)
(0.0245683352 0 0.000418961429)
(0.0243537085 0 0.000468265285)
(0.0241119199 0 0.000514686772)
(0.0238439122 0 0.000558272659)
(0.0235506386 0 0.000599088862)
(0.0232330531 0 0.00063722041)
(0.0228920995 0 0.000672771299)
(0.0225287011 0 0.000705864194)
(0.0221437489 0 0.000736639991)
(0.0217380908 0 0.000765257207)
(0.0213125202 0 0.000791891192)
(0.0208677637 0 0.00081673314)
(0.0204044707 0 0.000839988855)
(0.0199232016 0 0.000861877274)
(0.0194244174 0 0.000882628667)
(0.0189084699 0 0.000902482521)
(0.0183755925 0 0.000921685006)
(0.0178258922 0 0.00094048602)
(0.0172593441 0 0.000959135705)
(0.0166757863 0 0.000977880393)
(0.0160749189 0 0.0009969579)
(0.0154563043 0 0.00101659208)
(0.014819373 0 0.00103698656)
(0.0141634315 0 0.00105831765)
(0.0134876766 0 0.00108072621)
(0.0127912153 0 0.00110430873)
(0.01207309 0 0.00112910742)
(0.0113323127 0 0.0011550996)
(0.0105679061 0 0.00118218674)
(0.00977895312 0 0.00121018347)
(0.00896465564 0 0.00123880763)
(0.00812440127 0 0.00126767224)
(0.00725783697 0 0.00129628105)
(0.00636494809 0 0.00132402952)
(0.00544613726 0 0.00135021357)
(0.00450230301 0 0.00137404719)
(0.00353489717 0 0.00139469317)
(0.00254598966 0 0.00141129736)
(0.00153823699 0 0.00142305076)
(0.000514987857 0 0.00142919147)
(4.26067584e-06 0 -5.78195478e-05)
(5.65258232e-05 0 -0.000217592065)
(0.000166372268 0 -0.000407522914)
(0.000330249117 0 -0.000615616192)
(0.00054749531 0 -0.000832518159)
(0.000817722395 0 -0.00105097279)
(0.00114028022 0 -0.00126545784)
(0.00151411963 0 -0.00147187811)
(0.00193781313 0 -0.00166728072)
(0.00240956892 0 -0.00184961026)
(0.0029272634 0 -0.00201750597)
(0.00348848418 0 -0.00217013773)
(0.0040905765 0 -0.00230707581)
(0.00473068848 0 -0.00242818924)
(0.00540581294 0 -0.00253356744)
(0.00611282486 0 -0.0026234608)
(0.00684851423 0 -0.00269823582)
(0.00760961432 0 -0.00275834192)
(0.00839282612 0 -0.00280428695)
(0.00919483917 0 -0.00283661932)
(0.0100123495 0 -0.0028559152)
(0.0108420754 0 -0.00286276932)
(0.0116807705 0 -0.00285778846)
(0.0125252364 0 -0.00284158683)
(0.0133723326 0 -0.00281478281)
(0.0142189867 0 -0.00277799655)
(0.0150622028 0 -0.00273184822)
(0.0158990694 0 -0.0026769566)
(0.0167267672 0 -0.00261393791)
(0.0175425751 0 -0.00254340473)
(0.0183438773 0 -0.00246596499)
(0.0191281684 0 -0.00238222093)
(0.0198930594 0 -0.00229276807)
(0.020636282 0 -0.00219819413)
(0.0213556932 0 -0.00209907794)
(0.0220492797 0 -0.00199598834)
(0.0227151608 0 -0.00188948295)
(0.0233515918 0 -0.00178010714)
(0.0239569669 0 -0.00166839278)
(0.0245298204 0 -0.00155485717)
(0.0250688295 0 -0.00144000188)
(0.0255728144 0 -0.0013243117)
(0.0260407394 0 -0.0012082535)
(0.0264717127 0 -0.0010922752)
(0.0268649862 0 -0.000976804736)
(0.027219954 0 -0.000862249015)
(0.0275361509 0 -0.00074899283)
(0.02781325 0 -0.000637397771)
(0.0280510596 0 -0.00052780101)
(0.0282495194 0 -0.00042051393)
(0.0284086963 0 -0.00031582047)
(0.0285287783 0 -0.000213975069)
(0.028610069 0 -0.000115199831)
(0.0286529795 0 -1.96815015e-05)
(0.0286580224 0 7.24370581e-05)
(0.0286258018 0 0.000161038834)
(0.0285569933 0 0.000246016435)
(0.0284523537 0 0.000327285409)
(0.0283127058 0 0.000404782334)
(0.0281389342 0 0.000478466569)
(0.0279319768 0 0.000548321054)
(0.027692816 0 0.000614353037)
(0.0274224695 0 0.000676594551)
(0.0271219804 0 0.000735102739)
(0.026792406 0 0.000789959997)
(0.0264348075 0 0.000841273952)
(0.0260502375 0 0.000889177272)
(0.0256397283 0 0.000933827282)
(0.0252042796 0 0.000975405398)
(0.0247448456 0 0.00101411633)
(0.0242623222 0 0.00105018703)
(0.0237575339 0 0.00108386542)
(0.0232312216 0 0.00111541874)
(0.0226840298 0 0.00114513161)
(0.0221164947 0 0.00117330367)
(0.0215290333 0 0.00120024676)
(0.020921933 0 0.0012262816)
(0.0202953431 0 0.00125173393)
(0.0196492679 0 0.00127692989)
(0.0189835615 0 0.00130219072)
(0.0182979263 0 0.00132782661)
(0.0175919139 0 0.00135412958)
(0.0168649301 0 0.00138136532)
(0.016116245 0 0.00140976393)
(0.0153450077 0 0.00143950941)
(0.0145502679 0 0.0014707281)
(0.0137310047 0 0.0015034758)
(0.0128861625 0 0.00153772418)
(0.0120146964 0 0.00157334657)
(0.0111156266 0 0.00161010386)
(0.0101881023 0 0.00164763161)
(0.00923147433 0 0.00168542972)
(0.00824537592 0 0.00172285656)
(0.00722980955 0 0.00175913005)
(0.0061852338 0 0.00179333854)
(0.00511265083 0 0.00182446336)
(0.00401367087 0 0.00185141769)
(0.00289058704 0 0.00187309227)
(0.00174633906 0 0.00188843317)
(0.000584647399 0 0.00189645525)
(5.23581057e-06 0 -9.12178733e-05)
(6.74825409e-05 0 -0.00031380032)
(0.000196614612 0 -0.000563867497)
(0.000387294187 0 -0.000829980802)
(0.000637687891 0 -0.00110296771)
(0.000946578449 0 -0.00137552157)
(0.00131268931 0 -0.00164193475)
(0.00173449854 0 -0.00189786253)
(0.00221022889 0 -0.00214008743)
(0.00273782714 0 -0.0023663054)
(0.00331496617 0 -0.00257494082)
(0.00393906383 0 -0.00276499086)
(0.00460731118 0 -0.0029358975)
(0.00531670462 0 -0.00308744425)
(0.00606407903 0 -0.00321967429)
(0.00684613969 0 -0.00333282636)
(0.00765949223 0 -0.00342728523)
(0.00850066975 0 -0.00350354392)
(0.00936615746 0 -0.00356217508)
(0.0102524145 0 -0.00360380956)
(0.0111558934 0 -0.00362912048)
(0.0120730575 0 -0.00363881147)
(0.0130003967 0 -0.00363360793)
(0.013934441 0 -0.0036142507)
(0.0148717734 0 -0.00358149117)
(0.0158090415 0 -0.00353608775)
(0.0167429676 0 -0.00347880292)
(0.0176703588 0 -0.00341040101)
(0.0185881152 0 -0.00333164616)
(0.019493239 0 -0.00324330058)
(0.0203828411 0 -0.00314612287)
(0.0212541489 0 -0.00304086643)
(0.0221045121 0 -0.00292827787)
(0.0229314089 0 -0.00280909547)
(0.0237324513 0 -0.00268404758)
(0.0245053897 0 -0.00255385105)
(0.0252481173 0 -0.00241920966)
(0.0259586742 0 -0.00228081256)
(0.0266352498 0 -0.00213933275)
(0.0272761863 0 -0.00199542553)
(0.0278799802 0 -0.00184972704)
(0.0284452841 0 -0.00170285278)
(0.0289709075 0 -0.00155539623)
(0.0294558173 0 -0.00140792742)
(0.0298991372 0 -0.00126099157)
(0.0303001474 0 -0.00111510774)
(0.0306582821 0 -0.000970767409)
(0.0309731279 0 -0.000828433059)
(0.0312444206 0 -0.000688536643)
(0.0314720412 0 -0.000551477865)
(0.0316560111 0 -0.00041762219)
(0.0317964871 0 -0.000287298462)
(0.0318937546 0 -0.000160795762)
(0.0319482206 0 -3.83600855e-05)
(0.0319604047 0 7.98140769e-05)
(0.0319309359 0 0.000193570015)
(0.0318605204 0 0.000302765944)
(0.031749959 0 0.000407288321)
(0.0316001271 0 0.000507050618)
(0.031411971 0 0.000601995287)
(0.0311864986 0 0.000692094808)
(0.0309247695 0 0.000777352575)
(0.0306278854 0 0.000857803503)
(0.0302969787 0 0.000933514436)
(0.0299332011 0 0.00100458435)
(0.0295377112 0 0.00107114431)
(0.0291116619 0 0.00113335729)
(0.0286561872 0 0.00119141764)
(0.0281723883 0 0.00124555042)
(0.0276613199 0 0.00129601037)
(0.0271239762 0 0.00134308061)
(0.0265612764 0 0.00138707098)
(0.0259740512 0 0.00142831598)
(0.0253630286 0 0.00146717231)
(0.0247288214 0 0.00150401585)
(0.0240719145 0 0.00153923809)
(0.0233926542 0 0.00157324195)
(0.022691238 0 0.00160643682)
(0.0219677077 0 0.00163923277)
(0.0212219432 0 0.00167203386)
(0.020453661 0 0.00170523035)
(0.0196624147 0 0.00173918972)
(0.0188476007 0 0.0017742465)
(0.0180084684 0 0.00181069055)
(0.0171441367 0 0.00184875405)
(0.0162536164 0 0.00188859688)
(0.0153358411 0 0.00193029074)
(0.0143897062 0 0.00197380214)
(0.0134141169 0 0.00201897469)